    4    4    1    1
  0.4605711E+02  0.2889000E-09  0.2889000E-09  0.2548772E-08  0.5000000E-15
  0.000000000000000E+000
  CAR 
 Ag Slab                                 
     34    217     24
 
  0.0000000E+00  0.0000000E+00  0.0000000E+00  0.4340278E-03
    1       -9.322626   1.000000
    2       -7.763241   1.000000
    3       -7.027362   1.000000
    4       -5.903630   1.000000
    5       -5.903630   1.000000
    6       -5.819810   1.000000
    7       -5.599925   1.000000
    8       -5.599925   1.000000
    9       -5.469984   1.000000
   10       -5.354380   1.000000
   11       -5.354380   1.000000
   12       -4.793546   1.000000
   13       -4.793544   1.000000
   14       -4.514229   1.000000
   15       -4.514227   1.000000
   16       -4.043743   1.000000
   17       -4.043742   1.000000
   18       -3.831845   1.000000
   19       -1.177973   1.000000
   20        3.150964   0.000000
   21        3.528437   0.000000
   22        3.922627   0.000000
   23        4.815192   0.000000
   24        5.020475   0.000000
 
  0.2083333E-01  0.2915627E-18  0.0000000E+00  0.2604167E-02
    1       -9.312137   1.000000
    2       -7.752535   1.000000
    3       -7.018488   1.000000
    4       -5.911737   1.000000
    5       -5.897459   1.000000
    6       -5.818275   1.000000
    7       -5.613345   1.000000
    8       -5.594279   1.000000
    9       -5.463158   1.000000
   10       -5.356054   1.000000
   11       -5.348987   1.000000
   12       -4.800146   1.000000
   13       -4.795699   1.000000
   14       -4.540983   1.000000
   15       -4.514697   1.000000
   16       -4.070875   1.000000
   17       -4.043523   1.000000
   18       -3.773611   1.000000
   19       -1.153249   1.000000
   20        3.159815   0.000000
   21        3.539037   0.000000
   22        3.932578   0.000000
   23        4.825328   0.000000
   24        5.029563   0.000000
 
  0.4166667E-01  0.4455028E-17  0.0000000E+00  0.2604167E-02
    1       -9.280854   1.000000
    2       -7.720655   1.000000
    3       -6.992191   1.000000
    4       -5.935216   1.000000
    5       -5.879046   1.000000
    6       -5.814228   1.000000
    7       -5.645238   1.000000
    8       -5.577449   1.000000
    9       -5.452183   1.000000
   10       -5.359771   1.000000
   11       -5.332953   1.000000
   12       -4.826859   1.000000
   13       -4.801909   1.000000
   14       -4.599290   1.000000
   15       -4.516088   1.000000
   16       -4.119191   1.000000
   17       -4.042876   1.000000
   18       -3.645053   1.000000
   19       -1.080494   1.000000
   20        3.186355   0.000000
   21        3.570827   0.000000
   22        3.962442   0.000000
   23        4.855706   0.000000
   24        5.056876   0.000000
 
  0.6250000E-01  0.6770579E-17  0.0000000E+00  0.2604167E-02
    1       -9.229464   1.000000
    2       -7.668364   1.000000
    3       -6.949466   1.000000
    4       -5.971775   1.000000
    5       -5.848643   1.000000
    6       -5.809134   1.000000
    7       -5.684814   1.000000
    8       -5.549826   1.000000
    9       -5.450384   1.000000
   10       -5.362291   1.000000
   11       -5.306761   1.000000
   12       -4.889757   1.000000
   13       -4.811488   1.000000
   14       -4.647626   1.000000
   15       -4.518391   1.000000
   16       -4.169326   1.000000
   17       -4.041952   1.000000
   18       -3.486002   1.000000
   19       -0.963526   1.069336
   20        3.230560   0.000000
   21        3.623771   0.000000
   22        4.012249   0.000000
   23        4.906225   0.000000
   24        5.102577   0.000000
 
  0.8333333E-01  0.6965431E-17  0.0000000E+00  0.2604167E-02
    1       -9.158896   1.000000
    2       -7.597029   1.000000
    3       -6.892130   1.000000
    4       -6.017923   1.000000
    5       -5.806661   1.000000
    6       -5.805739   1.000000
    7       -5.726430   1.000000
    8       -5.511979   1.000000
    9       -5.462898   1.000000
   10       -5.361876   1.000000
   11       -5.271232   1.000000
   12       -4.985990   1.000000
   13       -4.823131   1.000000
   14       -4.672200   1.000000
   15       -4.521434   1.000000
   16       -4.216084   1.000000
   17       -4.040769   1.000000
   18       -3.310385   1.000000
   19       -0.807502   0.036338
   20        3.292403   0.000000
   21        3.697820   0.000000
   22        4.082044   0.000000
   23        4.976717   0.000000
   24        5.166943   0.000000
 
  0.1041667E+00 -0.6700157E-17  0.0000000E+00  0.2604167E-02
    1       -9.070949   1.000000
    2       -7.508793   1.000000
    3       -6.823198   1.000000
    4       -6.069155   1.000000
    5       -5.810574   1.000000
    6       -5.764920   1.000000
    7       -5.753741   1.000000
    8       -5.487417   1.000000
    9       -5.464915   1.000000
   10       -5.359591   1.000000
   11       -5.227794   1.000000
   12       -5.093382   1.000000
   13       -4.834944   1.000000
   14       -4.688255   1.000000
   15       -4.524963   1.000000
   16       -4.252050   1.000000
   17       -4.039507   1.000000
   18       -3.124139   1.000000
   19       -0.617922   0.000000
   20        3.371844   0.000000
   21        3.792871   0.000000
   22        4.171894   0.000000
   23        5.066887   0.000000
   24        5.250333   0.000000
 
  0.1250000E+00  0.1354116E-16  0.0000000E+00  0.2604167E-02
    1       -8.967904   1.000000
    2       -7.406794   1.000000
    3       -6.747246   1.000000
    4       -6.119939   1.000000
    5       -5.835133   1.000000
    6       -5.792687   1.000000
    7       -5.690857   1.000000
    8       -5.519182   1.000000
    9       -5.410204   1.000000
   10       -5.354147   1.000000
   11       -5.194868   1.000000
   12       -5.178838   1.000000
   13       -4.843844   1.000000
   14       -4.709585   1.000000
   15       -4.528440   1.000000
   16       -4.268537   1.000000
   17       -4.038297   1.000000
   18       -2.929954   1.000000
   19       -0.399864   0.000000
   20        3.468873   0.000000
   21        3.908784   0.000000
   22        4.281880   0.000000
   23        5.176312   0.000000
   24        5.353224   0.000000
 
  0.1458333E+00  0.2942561E-17  0.0000000E+00  0.2604167E-02
    1       -8.852967   1.000000
    2       -7.295577   1.000000
    3       -6.671187   1.000000
    4       -6.164039   1.000000
    5       -5.873408   1.000000
    6       -5.821249   1.000000
    7       -5.619326   1.000000
    8       -5.552074   1.000000
    9       -5.350139   1.000000
   10       -5.341771   1.000000
   11       -5.279382   1.000000
   12       -5.127918   1.000000
   13       -4.844925   1.000000
   14       -4.741289   1.000000
   15       -4.530803   1.000000
   16       -4.260483   1.000000
   17       -4.037203   1.000000
   18       -2.729001   1.000000
   19       -0.157720   0.000000
   20        3.583496   0.000000
   21        4.045348   0.000000
   22        4.412092   0.000000
   23        5.304353   0.000000
   24        5.476152   0.000000
 
  0.1666667E+00  0.1317799E-16  0.0000000E+00  0.2604167E-02
    1       -8.730526   1.000000
    2       -7.181436   1.000000
    3       -6.604351   1.000000
    4       -6.194829   1.000000
    5       -5.916708   1.000000
    6       -5.862120   1.000000
    7       -5.578421   1.000000
    8       -5.541276   1.000000
    9       -5.355535   1.000000
   10       -5.302469   1.000000
   11       -5.288389   1.000000
   12       -5.079458   1.000000
   13       -4.831570   1.000000
   14       -4.780265   1.000000
   15       -4.530392   1.000000
   16       -4.228756   1.000000
   17       -4.036336   1.000000
   18       -2.521612   1.000000
   19        0.104780   0.000000
   20        3.715734   0.000000
   21        4.202224   0.000000
   22        4.562623   0.000000
   23        5.450040   0.000000
   24        5.619696   0.000000
 
  0.1875000E+00  0.1645718E-16  0.0000000E+00  0.2604167E-02
    1       -8.606227   1.000000
    2       -7.072379   1.000000
    3       -6.556264   1.000000
    4       -6.207756   1.000000
    5       -5.973951   1.000000
    6       -5.899822   1.000000
    7       -5.595002   1.000000
    8       -5.460570   1.000000
    9       -5.397665   1.000000
   10       -5.253300   1.000000
   11       -5.229984   1.000000
   12       -5.034976   1.000000
   13       -4.818737   1.000000
   14       -4.798606   1.000000
   15       -4.524281   1.000000
   16       -4.176932   1.000000
   17       -4.035662   1.000000
   18       -2.307468   1.000000
   19        0.384564   0.000000
   20        3.865642   0.000000
   21        4.378874   0.000000
   22        4.733554   0.000000
   23        5.611895   0.000000
   24        5.784404   0.000000
 
  0.2083333E+00  0.3544464E-17  0.0000000E+00  0.2604167E-02
    1       -8.486955   1.000000
    2       -6.977028   1.000000
    3       -6.530964   1.000000
    4       -6.207549   1.000000
    5       -6.046633   1.000000
    6       -5.915817   1.000000
    7       -5.607614   1.000000
    8       -5.414891   1.000000
    9       -5.385089   1.000000
   10       -5.177285   1.000000
   11       -5.176894   1.000000
   12       -4.989494   1.000000
   13       -4.846638   1.000000
   14       -4.748246   1.000000
   15       -4.507776   1.000000
   16       -4.107459   1.000000
   17       -4.035095   1.000000
   18       -2.085824   1.000000
   19        0.679002   0.000000
   20        4.033273   0.000000
   21        4.574377   0.000000
   22        4.924937   0.000000
   23        5.787419   0.000000
   24        5.970665   0.000000
 
  0.2291667E+00  0.1994857E-16  0.0000000E+00  0.2604167E-02
    1       -8.380609   1.000000
    2       -6.902309   1.000000
    3       -6.524438   1.000000
    4       -6.221285   1.000000
    5       -6.106687   1.000000
    6       -5.906235   1.000000
    7       -5.623947   1.000000
    8       -5.401260   1.000000
    9       -5.329360   1.000000
   10       -5.120640   1.000000
   11       -5.080979   1.000000
   12       -4.939836   1.000000
   13       -4.848259   1.000000
   14       -4.688425   1.000000
   15       -4.474639   1.000000
   16       -4.034545   1.000000
   17       -4.020364   1.000000
   18       -1.855696   1.000000
   19        0.985633   0.000000
   20        4.218573   0.000000
   21        4.786954   0.000000
   22        5.136750   0.000000
   23        5.971547   0.000000
   24        6.178509   0.000000
 
  0.2500000E+00  0.2708232E-16  0.0000000E+00  0.2604167E-02
    1       -8.293979   1.000000
    2       -6.852083   1.000000
    3       -6.529127   1.000000
    4       -6.281363   1.000000
    5       -6.126530   1.000000
    6       -5.867934   1.000000
    7       -5.642154   1.000000
    8       -5.361852   1.000000
    9       -5.304601   1.000000
   10       -5.046138   1.000000
   11       -4.992975   1.000000
   12       -4.891877   1.000000
   13       -4.790830   1.000000
   14       -4.624090   1.000000
   15       -4.420496   1.000000
   16       -4.033550   1.000000
   17       -3.912209   1.000000
   18       -1.615780   1.000000
   19        1.302062   0.000000
   20        4.421212   0.000000
   21        5.012796   0.000000
   22        5.368814   0.000000
   23        6.151666   0.000000
   24        6.407369   0.000000
 
  0.2708333E+00 -0.2746376E-16  0.0000000E+00  0.2604167E-02
    1       -8.231708   1.000000
    2       -6.828308   1.000000
    3       -6.539211   1.000000
    4       -6.361214   1.000000
    5       -6.133096   1.000000
    6       -5.805393   1.000000
    7       -5.655551   1.000000
    8       -5.305262   1.000000
    9       -5.304173   1.000000
   10       -4.958674   1.000000
   11       -4.929967   1.000000
   12       -4.851390   1.000000
   13       -4.658226   1.000000
   14       -4.553700   1.000000
   15       -4.347904   1.000000
   16       -4.031460   1.000000
   17       -3.776235   1.000000
   18       -1.364797   1.000000
   19        1.625449   0.000000
   20        4.639957   0.000000
   21        5.241715   0.000000
   22        5.620483   0.000000
   23        6.289091   0.000000
   24        6.655325   0.000000
 
  0.2916667E+00  0.3057371E-16  0.0000000E+00  0.2604167E-02
    1       -8.194208   1.000000
    2       -6.830091   1.000000
    3       -6.555132   1.000000
    4       -6.438384   1.000000
    5       -6.142727   1.000000
    6       -5.734498   1.000000
    7       -5.653612   1.000000
    8       -5.316427   1.000000
    9       -5.238093   1.000000
   10       -4.884056   1.000000
   11       -4.860623   1.000000
   12       -4.803780   1.000000
   13       -4.487977   1.000000
   14       -4.475585   1.000000
   15       -4.264636   1.000000
   16       -4.026789   1.000000
   17       -3.602645   1.000000
   18       -1.101677   1.036703
   19        1.951847   0.000000
   20        4.870210   0.000000
   21        5.438509   0.000000
   22        5.889086   0.000000
   23        6.298183   0.000000
   24        6.914834   0.000000
 
  0.3125000E+00  0.2382967E-16  0.0000000E+00  0.2604167E-02
    1       -8.178480   1.000000
    2       -6.851581   1.000000
    3       -6.585448   1.000000
    4       -6.501215   1.000000
    5       -6.158278   1.000000
    6       -5.706799   1.000000
    7       -5.591780   1.000000
    8       -5.334435   1.000000
    9       -5.166276   1.000000
   10       -4.854795   1.000000
   11       -4.767248   1.000000
   12       -4.719714   1.000000
   13       -4.392865   1.000000
   14       -4.307059   1.000000
   15       -4.180107   1.000000
   16       -4.015923   1.000000
   17       -3.382040   1.000000
   18       -0.825980   0.300930
   19        2.274611   0.000000
   20        5.084992   0.000000
   21        5.488484   0.000000
   22        6.151421   0.000000
   23        6.280682   0.000000
   24        7.086717   0.000000
 
  0.3333333E+00  0.9376512E-17  0.0000000E+00  0.2604167E-02
    1       -8.179496   1.000000
    2       -6.884753   1.000000
    3       -6.635203   1.000000
    4       -6.544257   1.000000
    5       -6.179708   1.000000
    6       -5.715016   1.000000
    7       -5.486761   1.000000
    8       -5.354620   1.000000
    9       -5.093759   1.000000
   10       -4.848573   1.000000
   11       -4.652816   1.000000
   12       -4.621359   1.000000
   13       -4.311349   1.000000
   14       -4.121738   1.000000
   15       -4.107209   1.000000
   16       -3.989165   1.000000
   17       -3.110629   1.000000
   18       -0.538462   0.000000
   19        2.580648   0.000000
   20        5.052437   0.000000
   21        5.504915   0.000000
   22        6.314443   0.000000
   23        6.514424   0.000000
   24        6.718913   0.000000
 
  0.3541667E+00 -0.2048099E-16  0.0000000E+00  0.2604167E-02
    1       -8.191627   1.000000
    2       -6.922997   1.000000
    3       -6.692016   1.000000
    4       -6.577427   1.000000
    5       -6.204909   1.000000
    6       -5.731336   1.000000
    7       -5.377759   1.000000
    8       -5.374945   1.000000
    9       -5.021496   1.000000
   10       -4.849895   1.000000
   11       -4.530881   1.000000
   12       -4.523998   1.000000
   13       -4.238469   1.000000
   14       -4.058153   1.000000
   15       -3.934308   1.000000
   16       -3.924876   1.000000
   17       -2.792000   1.000000
   18       -0.241829   0.000000
   19        2.840129   0.000000
   20        4.709333   0.000000
   21        5.666834   0.000000
   22        6.089582   0.000000
   23        6.737826   0.000000
   24        6.861755   0.000000
 
  0.3750000E+00  0.3291437E-16  0.0000000E+00  0.2604167E-02
    1       -8.210164   1.000000
    2       -6.961817   1.000000
    3       -6.745760   1.000000
    4       -6.607724   1.000000
    5       -6.231306   1.000000
    6       -5.750423   1.000000
    7       -5.394148   1.000000
    8       -5.279776   1.000000
    9       -4.949969   1.000000
   10       -4.854332   1.000000
   11       -4.432725   1.000000
   12       -4.417100   1.000000
   13       -4.183075   1.000000
   14       -4.019093   1.000000
   15       -3.862826   1.000000
   16       -3.706695   1.000000
   17       -2.434407   1.000000
   18        0.057343   0.000000
   19        2.982049   0.000000
   20        4.382892   0.000000
   21        5.415405   0.000000
   22        6.145826   0.000000
   23        7.049884   0.000000
   24        7.148812   0.000000
 
  0.3958333E+00 -0.3396907E-16  0.0000000E+00  0.2604167E-02
    1       -8.231146   1.000000
    2       -6.998213   1.000000
    3       -6.792890   1.000000
    4       -6.635714   1.000000
    5       -6.256543   1.000000
    6       -5.769706   1.000000
    7       -5.411482   1.000000
    8       -5.199288   1.000000
    9       -4.881406   1.000000
   10       -4.859896   1.000000
   11       -4.350452   1.000000
   12       -4.321280   1.000000
   13       -4.149717   1.000000
   14       -3.974001   1.000000
   15       -3.791399   1.000000
   16       -3.465674   1.000000
   17       -2.047223   1.000000
   18        0.345983   0.000000
   19        2.904130   0.000000
   20        4.183356   0.000000
   21        5.064012   0.000000
   22        6.367155   0.000000
   23        6.860251   0.000000
   24        7.417894   0.000000
 
  0.4166667E+00  0.4021937E-17  0.0000000E+00  0.2604167E-02
    1       -8.251693   1.000000
    2       -7.030141   1.000000
    3       -6.832185   1.000000
    4       -6.660429   1.000000
    5       -6.278972   1.000000
    6       -5.787458   1.000000
    7       -5.426309   1.000000
    8       -5.137060   1.000000
    9       -4.865493   1.000000
   10       -4.819752   1.000000
   11       -4.279595   1.000000
   12       -4.245896   1.000000
   13       -4.132960   1.000000
   14       -3.925447   1.000000
   15       -3.727629   1.000000
   16       -3.212413   1.000000
   17       -1.640334   1.000000
   18        0.598745   0.000000
   19        2.634788   0.000000
   20        3.999025   0.000000
   21        4.931945   0.000000
   22        6.202523   0.000000
   23        6.913729   0.000000
   24        7.796913   0.000000
 
  0.4375000E+00  0.2966171E-16  0.0000000E+00  0.2604167E-02
    1       -8.269642   1.000000
    2       -7.056210   1.000000
    3       -6.863086   1.000000
    4       -6.680794   1.000000
    5       -6.297401   1.000000
    6       -5.802417   1.000000
    7       -5.438236   1.000000
    8       -5.091226   1.000000
    9       -4.870410   1.000000
   10       -4.768838   1.000000
   11       -4.221964   1.000000
   12       -4.189731   1.000000
   13       -4.125131   1.000000
   14       -3.881342   1.000000
   15       -3.675072   1.000000
   16       -2.967068   1.000000
   17       -1.225739   1.030138
   18        0.769953   0.000000
   19        2.318742   0.000000
   20        3.769117   0.000000
   21        4.939526   0.000000
   22        5.928083   0.000000
   23        7.211354   0.000000
   24        8.085651   0.000000
 
  0.4583333E+00  0.2871207E-17  0.0000000E+00  0.2604167E-02
    1       -8.283390   1.000000
    2       -7.075430   1.000000
    3       -6.885304   1.000000
    4       -6.695916   1.000000
    5       -6.311020   1.000000
    6       -5.813635   1.000000
    7       -5.446933   1.000000
    8       -5.059760   1.000000
    9       -4.874189   1.000000
   10       -4.731238   1.000000
   11       -4.178960   1.000000
   12       -4.150911   1.000000
   13       -4.122025   1.000000
   14       -3.847099   1.000000
   15       -3.636042   1.000000
   16       -2.756605   1.000000
   17       -0.822668   0.342434
   18        0.799756   0.000000
   19        2.063956   0.000000
   20        3.611889   0.000000
   21        4.806743   0.000000
   22        5.930655   0.000000
   23        7.377096   0.000000
   24        7.944594   0.000000
 
  0.4791667E+00 -0.2698629E-16  0.0000000E+00  0.2604167E-02
    1       -8.291908   1.000000
    2       -7.087186   1.000000
    3       -6.898671   1.000000
    4       -6.705205   1.000000
    5       -6.319342   1.000000
    6       -5.820533   1.000000
    7       -5.452180   1.000000
    8       -5.041327   1.000000
    9       -4.876539   1.000000
   10       -4.708281   1.000000
   11       -4.151306   1.000000
   12       -4.128079   1.000000
   13       -4.122021   1.000000
   14       -3.825554   1.000000
   15       -3.612000   1.000000
   16       -2.611826   1.000000
   17       -0.475532   0.000000
   18        0.687328   0.000000
   19        1.917803   0.000000
   20        3.578194   0.000000
   21        4.572852   0.000000
   22        6.142526   0.000000
   23        7.168472   0.000000
   24        8.163264   0.000000
 
  0.5000000E+00  0.5416464E-16  0.0000000E+00  0.1302083E-02
    1       -8.294825   1.000000
    2       -7.091145   1.000000
    3       -6.903126   1.000000
    4       -6.708332   1.000000
    5       -6.322138   1.000000
    6       -5.822871   1.000000
    7       -5.453958   1.000000
    8       -5.035247   1.000000
    9       -4.877348   1.000000
   10       -4.700572   1.000000
   11       -4.140787   1.000000
   12       -4.123343   1.000000
   13       -4.120543   1.000000
   14       -3.818249   1.000000
   15       -3.603905   1.000000
   16       -2.559790   1.000000
   17       -0.313073   0.000000
   18        0.593574   0.000000
   19        1.872220   0.000000
   20        3.594957   0.000000
   21        4.456925   0.000000
   22        6.291831   0.000000
   23        7.000330   0.000000
   24        8.377338   0.000000
 
  0.4166667E-01  0.2083333E-01  0.0000000E+00  0.2604167E-02
    1       -9.291253   1.000000
    2       -7.731240   1.000000
    3       -7.000902   1.000000
    4       -5.927558   1.000000
    5       -5.885131   1.000000
    6       -5.815491   1.000000
    7       -5.635648   1.000000
    8       -5.582986   1.000000
    9       -5.454650   1.000000
   10       -5.358808   1.000000
   11       -5.338231   1.000000
   12       -4.817232   1.000000
   13       -4.799462   1.000000
   14       -4.582618   1.000000
   15       -4.516187   1.000000
   16       -4.105084   1.000000
   17       -4.043748   1.000000
   18       -3.683405   1.000000
   19       -1.104517   1.000000
   20        3.177510   0.000000
   21        3.560232   0.000000
   22        3.952486   0.000000
   23        4.845585   0.000000
   24        5.047762   0.000000
 
  0.6250000E-01  0.2083333E-01  0.0000000E+00  0.5208333E-02
    1       -9.249915   1.000000
    2       -7.689140   1.000000
    3       -6.966370   1.000000
    4       -5.957722   1.000000
    5       -5.860584   1.000000
    6       -5.810860   1.000000
    7       -5.670592   1.000000
    8       -5.560554   1.000000
    9       -5.449314   1.000000
   10       -5.362151   1.000000
   11       -5.316990   1.000000
   12       -4.863852   1.000000
   13       -4.806586   1.000000
   14       -4.632115   1.000000
   15       -4.519671   1.000000
   16       -4.149138   1.000000
   17       -4.044242   1.000000
   18       -3.544594   1.000000
   19       -1.009706   1.000000
   20        3.212881   0.000000
   21        3.602599   0.000000
   22        3.992321   0.000000
   23        4.886034   0.000000
   24        5.084270   0.000000
 
  0.8333333E-01  0.2083333E-01  0.0000000E+00  0.5208333E-02
    1       -9.188933   1.000000
    2       -7.627285   1.000000
    3       -6.916268   1.000000
    4       -5.999291   1.000000
    5       -5.824388   1.000000
    6       -5.806229   1.000000
    7       -5.710612   1.000000
    8       -5.527538   1.000000
    9       -5.455834   1.000000
   10       -5.363479   1.000000
   11       -5.286143   1.000000
   12       -4.946567   1.000000
   13       -4.816725   1.000000
   14       -4.662075   1.000000
   15       -4.524930   1.000000
   16       -4.193686   1.000000
   17       -4.044248   1.000000
   18       -3.380987   1.000000
   19       -0.873344   0.534199
   20        3.265907   0.000000
   21        3.666096   0.000000
   22        4.052123   0.000000
   23        4.946541   0.000000
   24        5.139305   0.000000
 
  0.1041667E+00  0.2083333E-01  0.0000000E+00  0.5208333E-02
    1       -9.109642   1.000000
    2       -7.547384   1.000000
    3       -6.852944   1.000000
    4       -6.048225   1.000000
    5       -5.806876   1.000000
    6       -5.775995   1.000000
    7       -5.750854   1.000000
    8       -5.484738   1.000000
    9       -5.474967   1.000000
   10       -5.362952   1.000000
   11       -5.247512   1.000000
   12       -5.048609   1.000000
   13       -4.828507   1.000000
   14       -4.677603   1.000000
   15       -4.531244   1.000000
   16       -4.232058   1.000000
   17       -4.043696   1.000000
   18       -3.202726   1.000000
   19       -0.700767  -0.010178
   20        3.336551   0.000000
   21        3.750648   0.000000
   22        4.131947   0.000000
   23        5.026879   0.000000
   24        5.213189   0.000000
 
  0.1250000E+00  0.2083333E-01  0.0000000E+00  0.5208333E-02
    1       -9.014026   1.000000
    2       -7.452018   1.000000
    3       -6.780120   1.000000
    4       -6.099473   1.000000
    5       -5.821722   1.000000
    6       -5.783349   1.000000
    7       -5.717854   1.000000
    8       -5.503137   1.000000
    9       -5.433559   1.000000
   10       -5.360591   1.000000
   11       -5.210603   1.000000
   12       -5.143205   1.000000
   13       -4.839573   1.000000
   14       -4.693705   1.000000
   15       -4.536781   1.000000
   16       -4.256023   1.000000
   17       -4.042782   1.000000
   18       -3.014440   1.000000
   19       -0.497237   0.000000
   20        3.424789   0.000000
   21        3.856138   0.000000
   22        4.231868   0.000000
   23        5.126693   0.000000
   24        5.306340   0.000000
 
  0.1458333E+00  0.2083333E-01  0.0000000E+00  0.5208333E-02
    1       -8.904783   1.000000
    2       -7.344958   1.000000
    3       -6.703477   1.000000
    4       -6.147108   1.000000
    5       -5.856280   1.000000
    6       -5.808328   1.000000
    7       -5.650209   1.000000
    8       -5.535502   1.000000
    9       -5.376849   1.000000
   10       -5.352176   1.000000
   11       -5.257385   1.000000
   12       -5.138713   1.000000
   13       -4.846218   1.000000
   14       -4.719238   1.000000
   15       -4.539254   1.000000
   16       -4.259037   1.000000
   17       -4.041684   1.000000
   18       -2.818291   1.000000
   19       -0.267459   0.000000
   20        3.530624   0.000000
   21        3.982395   0.000000
   22        4.351972   0.000000
   23        5.245466   0.000000
   24        5.419272   0.000000
 
  0.1666667E+00  0.2083333E-01  0.0000000E+00  0.5208333E-02
    1       -8.785777   1.000000
    2       -7.231570   1.000000
    3       -6.631280   1.000000
    4       -6.184487   1.000000
    5       -5.897049   1.000000
    6       -5.843916   1.000000
    7       -5.576490   1.000000
    8       -5.563801   1.000000
    9       -5.347723   1.000000
   10       -5.320021   1.000000
   11       -5.310284   1.000000
   12       -5.091726   1.000000
   13       -4.843521   1.000000
   14       -4.752975   1.000000
   15       -4.537671   1.000000
   16       -4.239109   1.000000
   17       -4.040539   1.000000
   18       -2.615212   1.000000
   19       -0.015479   0.000000
   20        3.654069   0.000000
   21        4.129144   0.000000
   22        4.492352   0.000000
   23        5.382396   0.000000
   24        5.552541   0.000000
 
  0.1875000E+00  0.2083333E-01  0.0000000E+00  0.5208333E-02
    1       -8.661922   1.000000
    2       -7.119019   1.000000
    3       -6.573535   1.000000
    4       -6.205337   1.000000
    5       -5.944705   1.000000
    6       -5.887991   1.000000
    7       -5.586831   1.000000
    8       -5.494758   1.000000
    9       -5.390353   1.000000
   10       -5.292512   1.000000
   11       -5.250875   1.000000
   12       -5.046634   1.000000
   13       -4.833185   1.000000
   14       -4.779750   1.000000
   15       -4.531051   1.000000
   16       -4.198096   1.000000
   17       -4.039285   1.000000
   18       -2.405234   1.000000
   19        0.255352   0.000000
   20        3.795170   0.000000
   21        4.295964   0.000000
   22        4.653098   0.000000
   23        5.536301   0.000000
   24        5.706723   0.000000
 
  0.2083333E+00  0.2083333E-01  0.0000000E+00  0.5208333E-02
    1       -8.539515   1.000000
    2       -7.015853   1.000000
    3       -6.537672   1.000000
    4       -6.208459   1.000000
    5       -6.010987   1.000000
    6       -5.917057   1.000000
    7       -5.600142   1.000000
    8       -5.429173   1.000000
    9       -5.408006   1.000000
   10       -5.232885   1.000000
   11       -5.194135   1.000000
   12       -5.003269   1.000000
   13       -4.845103   1.000000
   14       -4.759375   1.000000
   15       -4.516074   1.000000
   16       -4.138896   1.000000
   17       -4.037505   1.000000
   18       -2.187918   1.000000
   19        0.542195   0.000000
   20        3.953994   0.000000
   21        4.482154   0.000000
   22        4.834278   0.000000
   23        5.705282   0.000000
   24        5.882300   0.000000
 
  0.2291667E+00  0.2083333E-01  0.0000000E+00  0.5208333E-02
    1       -8.425990   1.000000
    2       -6.930153   1.000000
    3       -6.523173   1.000000
    4       -6.207902   1.000000
    5       -6.082756   1.000000
    6       -5.921603   1.000000
    7       -5.614558   1.000000
    8       -5.425548   1.000000
    9       -5.347158   1.000000
   10       -5.156388   1.000000
   11       -5.131548   1.000000
   12       -4.956114   1.000000
   13       -4.859507   1.000000
   14       -4.707298   1.000000
   15       -4.486764   1.000000
   16       -4.067572   1.000000
   17       -4.029803   1.000000
   18       -1.962396   1.000000
   19        0.842543   0.000000
   20        4.130558   0.000000