 vasp.5.4.4.18Apr17-6-g9f103f2a35 (build Nov 10 2019 13:41:14) complex          
  
 executed on             LinuxIFC date 2021.01.11  16:58:39
 running on   12 total cores
 distrk:  each k-point on   12 cores,    1 groups
 distr:  one band on NCORES_PER_BAND=   2 cores,    6 groups


--------------------------------------------------------------------------------------------------------


 INCAR:
 POTCAR:    PAW_PBE Ag 02Apr2005                  
 POTCAR:    PAW_PBE H 15Jun2001                   
 POTCAR:    PAW_PBE Ag 02Apr2005                  
   VRHFIN =Ag : s1 d10                                                          
   LEXCH  = PE                                                                  
   EATOM  =  1037.2675 eV,   76.2370 Ry                                         
                                                                                
   TITEL  = PAW_PBE Ag 02Apr2005                                                
   LULTRA =        F    use ultrasoft PP ?                                      
   IUNSCR =        1    unscreen: 0-lin 1-nonlin 2-no                           
   RPACOR =    2.000    partial core radius                                     
   POMASS =  107.868; ZVAL   =   11.000    mass and valenz                      
   RCORE  =    2.500    outmost cutoff radius                                   
   RWIGS  =    2.840; RWIGS  =    1.503    wigner-seitz radius (au A)           
   ENMAX  =  249.844; ENMIN  =  187.383 eV                                      
   ICORE  =        3    local potential                                         
   LCOR   =        T    correct aug charges                                     
   LPAW   =        T    paw PP                                                  
   EAUG   =  412.496                                                            
   DEXC   =    0.000                                                            
   RMAX   =    2.560    core radius for proj-oper                               
   RAUG   =    1.300    factor for augmentation sphere                          
   RDEP   =    2.576    radius for radial grids                                 
   RDEPT  =    2.072    core radius for aug-charge                              
                                                                                
   Atomic configuration                                                         
   12 entries                                                                   
     n  l   j            E        occ.                                          
     1  0  0.50    -25324.9161   2.0000                                         
     2  0  0.50     -3728.5341   2.0000                                         
     2  1  1.50     -3344.0404   6.0000                                         
     3  0  0.50      -683.5581   2.0000                                         
     3  1  1.50      -557.3225   6.0000                                         
     3  2  2.50      -358.3853  10.0000                                         
     4  0  0.50       -95.0341   2.0000                                         
     4  1  1.50       -58.5511   6.0000                                         
     4  2  2.50        -7.4440  10.0000                                         
     5  0  0.50        -4.4045   1.0000                                         
     5  1  0.50        -1.3606   0.0000                                         
     4  3  2.50        -1.3606   0.0000                                         
   Description                                                                  
     l       E           TYP  RCUT    TYP  RCUT                                 
     2     -7.4439781     23  2.400                                             
     2     -8.8045607     23  2.400                                             
     0     -4.4044681     23  2.400                                             
     0      1.9520038     23  2.400                                             
     1     -1.3605826     23  2.500                                             
     1     27.2116520     23  2.500                                             
     3     -4.0817478     23  2.400                                             
  local pseudopotential read in
  partial core-charges read in
  partial kinetic energy density read in
  atomic valenz-charges read in
  non local Contribution for L=           2  read in
    real space projection operators read in
  non local Contribution for L=           2  read in
    real space projection operators read in
  non local Contribution for L=           0  read in
    real space projection operators read in
  non local Contribution for L=           0  read in
    real space projection operators read in
  non local Contribution for L=           1  read in
    real space projection operators read in
  non local Contribution for L=           1  read in
    real space projection operators read in
    PAW grid and wavefunctions read in
 
   number of l-projection  operators is LMAX  =           6
   number of lm-projection operators is LMMAX =          18
 
 POTCAR:    PAW_PBE H 15Jun2001                   
   VRHFIN =H: ultrasoft test                                                    
   LEXCH  = PE                                                                  
   EATOM  =    12.4884 eV,    0.9179 Ry                                         
                                                                                
   TITEL  = PAW_PBE H 15Jun2001                                                 
   LULTRA =        F    use ultrasoft PP ?                                      
   IUNSCR =        0    unscreen: 0-lin 1-nonlin 2-no                           
   RPACOR =    0.000    partial core radius                                     
   POMASS =    1.000; ZVAL   =    1.000    mass and valenz                      
   RCORE  =    1.100    outmost cutoff radius                                   
   RWIGS  =    0.700; RWIGS  =    0.370    wigner-seitz radius (au A)           
   ENMAX  =  250.000; ENMIN  =  200.000 eV                                      
   RCLOC  =    0.701    cutoff for local pot                                    
   LCOR   =        T    correct aug charges                                     
   LPAW   =        T    paw PP                                                  
   EAUG   =  400.000                                                            
   RMAX   =    1.123    core radius for proj-oper                               
   RAUG   =    1.200    factor for augmentation sphere                          
   RDEP   =    1.112    radius for radial grids                                 
   RDEPT  =    0.926    core radius for aug-charge                              
                                                                                
   Atomic configuration                                                         
    2 entries                                                                   
     n  l   j            E        occ.                                          
     1  0  0.50        -6.4927   1.0000                                         
     2  1  0.50        -3.4015   0.0000                                         
   Description                                                                  
     l       E           TYP  RCUT    TYP  RCUT                                 
     0     -6.4927494     23  1.100                                             
     0      6.8029130     23  1.100                                             
     1     -4.0817478     23  1.100                                             
  local pseudopotential read in
  atomic valenz-charges read in
  non local Contribution for L=           0  read in
    real space projection operators read in
  non local Contribution for L=           0  read in
    real space projection operators read in
  non local Contribution for L=           1  read in
    real space projection operators read in
    PAW grid and wavefunctions read in
 
   number of l-projection  operators is LMAX  =           3
   number of lm-projection operators is LMMAX =           5
 
  PAW_PBE Ag 02Apr2005                  :
 energy of atom  1       EATOM=-1037.2675
 kinetic energy error for atom=    0.0091 (will be added to EATOM!!)
  PAW_PBE H 15Jun2001                   :
 energy of atom  2       EATOM=  -12.4884
 kinetic energy error for atom=    0.0098 (will be added to EATOM!!)
 
 
 POSCAR: Ag(111) Slab                            
  positions in direct lattice
  velocities in cartesian coordinates
 exchange correlation table for  LEXCH =        8
   RHO(1)=    0.500       N(1)  =     2000
   RHO(2)=  100.500       N(2)  =     4000

 VTST: version 3.2, (02/03/18)

 CHAIN: initializing optimizer
 
 OPT: Using VASP Dynamics algorithm
 CHAIN: Read ICHAIN            0
 
 POSCAR: Ag(111) Slab                            
  positions in direct lattice
  velocities in cartesian coordinates
 


--------------------------------------------------------------------------------------------------------


 ion  position               nearest neighbor table
   1  0.000  0.000  0.000-   4 1.87   4 1.87   4 1.87   2 2.96   2 2.96   2 2.96
   2  0.333  0.333  0.096-   3 2.90   3 2.90   3 2.90   1 2.96   1 2.96   1 2.96
   3  0.667  0.667  0.189-   2 2.90   2 2.90   2 2.90
   4  0.667  0.667  0.967-   1 1.87   1 1.87   1 1.87
 
  LATTYP: Found a hexagonal cell.
 ALAT       =     2.8890000000
 C/A-ratio  =     8.8223320334
  
  Lattice vectors:
  
 A1 = (   1.4445000000,  -2.5019473915,   0.0000000000)
 A2 = (  -2.8890000000,   0.0000000000,   0.0000000000)
 A3 = (   0.0000000000,   0.0000000000, -25.4877172446)


Analysis of symmetry for initial positions (statically):
=====================================================================
 Subroutine PRICEL returns:
 Original cell was already a primitive cell.
 

 Routine SETGRP: Setting up the symmetry group for a 
 hexagonal supercell.


 Subroutine GETGRP returns: Found  6 space group operations
 (whereof  6 operations were pure point group operations)
 out of a pool of 24 trial point group operations.


The static configuration has the point symmetry C_3v.


Analysis of symmetry for dynamics (positions and initial velocities):
=====================================================================
 Subroutine PRICEL returns:
 Original cell was already a primitive cell.
 

 Routine SETGRP: Setting up the symmetry group for a 
 hexagonal supercell.


 Subroutine GETGRP returns: Found  6 space group operations
 (whereof  6 operations were pure point group operations)
 out of a pool of 24 trial point group operations.


The dynamic configuration has the point symmetry C_3v.


Analysis of constrained symmetry for selective dynamics:
=====================================================================
 Subroutine PRICEL returns:
 Original cell was already a primitive cell.
 

 Routine SETGRP: Setting up the symmetry group for a 
 hexagonal supercell.


 Subroutine GETGRP returns: Found  6 space group operations
 (whereof  6 operations were pure point group operations)
 out of a pool of 24 trial point group operations.


The constrained configuration has the point symmetry C_3v.


 Subroutine INISYM returns: Found  6 space group operations
 (whereof  6 operations are pure point group operations),
 and found     1 'primitive' translations

 
 
 KPOINTS: K-Points                                

Automatic generation of k-mesh.
Space group operators:
 irot       det(A)        alpha          n_x          n_y          n_z        tau_x        tau_y        tau_z
    1     1.000000     0.000000     1.000000     0.000000     0.000000     0.000000     0.000000     0.000000
    2     1.000000   120.000000     0.000000     0.000000     1.000000     0.000000     0.000000     0.000000
    3     1.000000   120.000000     0.000000     0.000000    -1.000000     0.000000     0.000000     0.000000
    4    -1.000000   180.000000     0.500000    -0.866025     0.000000     0.000000     0.000000     0.000000
    5    -1.000000   180.000000     1.000000    -0.000000     0.000000     0.000000     0.000000     0.000000
    6    -1.000000   180.000000    -0.500000    -0.866025     0.000000     0.000000     0.000000     0.000000
 
 Subroutine IBZKPT returns following result:
 ===========================================
 
 Found    217 irreducible k-points:
 
 Following reciprocal coordinates:
            Coordinates               Weight
  0.000000  0.000000  0.000000      1.000000
  0.020833  0.000000  0.000000      6.000000
  0.041667  0.000000  0.000000      6.000000
  0.062500  0.000000  0.000000      6.000000
  0.083333  0.000000  0.000000      6.000000
  0.104167 -0.000000  0.000000      6.000000
  0.125000  0.000000  0.000000      6.000000
  0.145833  0.000000  0.000000      6.000000
  0.166667  0.000000  0.000000      6.000000
  0.187500  0.000000  0.000000      6.000000
  0.208333  0.000000  0.000000      6.000000
  0.229167  0.000000  0.000000      6.000000
  0.250000  0.000000  0.000000      6.000000
  0.270833 -0.000000  0.000000      6.000000
  0.291667  0.000000  0.000000      6.000000
  0.312500  0.000000  0.000000      6.000000
  0.333333  0.000000  0.000000      6.000000
  0.354167 -0.000000  0.000000      6.000000
  0.375000  0.000000  0.000000      6.000000
  0.395833 -0.000000  0.000000      6.000000
  0.416667  0.000000  0.000000      6.000000
  0.437500  0.000000  0.000000      6.000000
  0.458333  0.000000  0.000000      6.000000
  0.479167 -0.000000  0.000000      6.000000
  0.500000  0.000000  0.000000      3.000000
  0.041667  0.020833  0.000000      6.000000
  0.062500  0.020833  0.000000     12.000000
  0.083333  0.020833  0.000000     12.000000
  0.104167  0.020833  0.000000     12.000000
  0.125000  0.020833  0.000000     12.000000
  0.145833  0.020833  0.000000     12.000000
  0.166667  0.020833  0.000000     12.000000
  0.187500  0.020833  0.000000     12.000000
  0.208333  0.020833  0.000000     12.000000
  0.229167  0.020833  0.000000     12.000000
  0.250000  0.020833  0.000000     12.000000
  0.270833  0.020833  0.000000     12.000000
  0.291667  0.020833  0.000000     12.000000
  0.312500  0.020833  0.000000     12.000000
  0.333333  0.020833  0.000000     12.000000
  0.354167  0.020833  0.000000     12.000000
  0.375000  0.020833  0.000000     12.000000
  0.395833  0.020833  0.000000     12.000000
  0.416667  0.020833  0.000000     12.000000
  0.437500  0.020833  0.000000     12.000000
  0.458333  0.020833  0.000000     12.000000
  0.479167  0.020833  0.000000     12.000000
  0.500000  0.020833  0.000000     12.000000
  0.083333  0.041667  0.000000      6.000000
  0.104167  0.041667  0.000000     12.000000
  0.125000  0.041667  0.000000     12.000000
  0.145833  0.041667  0.000000     12.000000
  0.166667  0.041667  0.000000     12.000000
  0.187500  0.041667  0.000000     12.000000
  0.208333  0.041667  0.000000     12.000000
  0.229167  0.041667  0.000000     12.000000
  0.250000  0.041667  0.000000     12.000000
  0.270833  0.041667  0.000000     12.000000
  0.291667  0.041667  0.000000     12.000000
  0.312500  0.041667  0.000000     12.000000
  0.333333  0.041667  0.000000     12.000000
  0.354167  0.041667  0.000000     12.000000
  0.375000  0.041667  0.000000     12.000000
  0.395833  0.041667  0.000000     12.000000
  0.416667  0.041667  0.000000     12.000000
  0.437500  0.041667  0.000000     12.000000
  0.458333  0.041667  0.000000     12.000000
  0.479167  0.041667  0.000000     12.000000
  0.500000  0.041667  0.000000     12.000000
 -0.479167  0.041667  0.000000      6.000000
  0.125000  0.062500  0.000000      6.000000
  0.145833  0.062500  0.000000     12.000000
  0.166667  0.062500  0.000000     12.000000
  0.187500  0.062500  0.000000     12.000000
  0.208333  0.062500  0.000000     12.000000
  0.229167  0.062500  0.000000     12.000000
  0.250000  0.062500  0.000000     12.000000
  0.270833  0.062500  0.000000     12.000000
  0.291667  0.062500  0.000000     12.000000
  0.312500  0.062500  0.000000     12.000000
  0.333333  0.062500  0.000000     12.000000
  0.354167  0.062500  0.000000     12.000000
  0.375000  0.062500  0.000000     12.000000
  0.395833  0.062500  0.000000     12.000000
  0.416667  0.062500  0.000000     12.000000
  0.437500  0.062500  0.000000     12.000000
  0.458333  0.062500  0.000000     12.000000
  0.479167  0.062500  0.000000     12.000000
  0.500000  0.062500  0.000000     12.000000
 -0.479167  0.062500  0.000000     12.000000
  0.166667  0.083333  0.000000      6.000000
  0.187500  0.083333  0.000000     12.000000
  0.208333  0.083333  0.000000     12.000000
  0.229167  0.083333  0.000000     12.000000
  0.250000  0.083333  0.000000     12.000000
  0.270833  0.083333  0.000000     12.000000
  0.291667  0.083333  0.000000     12.000000
  0.312500  0.083333  0.000000     12.000000
  0.333333  0.083333  0.000000     12.000000
  0.354167  0.083333  0.000000     12.000000
  0.375000  0.083333  0.000000     12.000000
  0.395833  0.083333  0.000000     12.000000
  0.416667  0.083333  0.000000     12.000000
  0.437500  0.083333  0.000000     12.000000
  0.458333  0.083333  0.000000     12.000000
  0.479167  0.083333  0.000000     12.000000
  0.500000  0.083333  0.000000     12.000000
 -0.479167  0.083333  0.000000     12.000000
 -0.458333  0.083333  0.000000      6.000000
  0.208333  0.104167  0.000000      6.000000
  0.229167  0.104167  0.000000     12.000000
  0.250000  0.104167  0.000000     12.000000
  0.270833  0.104167  0.000000     12.000000
  0.291667  0.104167  0.000000     12.000000
  0.312500  0.104167  0.000000     12.000000
  0.333333  0.104167  0.000000     12.000000
  0.354167  0.104167  0.000000     12.000000
  0.375000  0.104167  0.000000     12.000000
  0.395833  0.104167  0.000000     12.000000
  0.416667  0.104167  0.000000     12.000000
  0.437500  0.104167  0.000000     12.000000
  0.458333  0.104167  0.000000     12.000000
  0.479167  0.104167  0.000000     12.000000
  0.500000  0.104167  0.000000     12.000000
 -0.479167  0.104167  0.000000     12.000000
 -0.458333  0.104167  0.000000     12.000000
  0.250000  0.125000  0.000000      6.000000
  0.270833  0.125000  0.000000     12.000000
  0.291667  0.125000  0.000000     12.000000
  0.312500  0.125000  0.000000     12.000000
  0.333333  0.125000  0.000000     12.000000
  0.354167  0.125000  0.000000     12.000000
  0.375000  0.125000  0.000000     12.000000
  0.395833  0.125000  0.000000     12.000000
  0.416667  0.125000  0.000000     12.000000
  0.437500  0.125000  0.000000     12.000000
  0.458333  0.125000  0.000000     12.000000
  0.479167  0.125000  0.000000     12.000000
  0.500000  0.125000  0.000000     12.000000
 -0.479167  0.125000  0.000000     12.000000
 -0.458333  0.125000  0.000000     12.000000
 -0.437500  0.125000  0.000000      6.000000
  0.291667  0.145833  0.000000      6.000000
  0.312500  0.145833  0.000000     12.000000
  0.333333  0.145833  0.000000     12.000000
  0.354167  0.145833  0.000000     12.000000
  0.375000  0.145833  0.000000     12.000000
  0.395833  0.145833  0.000000     12.000000
  0.416667  0.145833  0.000000     12.000000
  0.437500  0.145833  0.000000     12.000000
  0.458333  0.145833  0.000000     12.000000
  0.479167  0.145833  0.000000     12.000000
  0.500000  0.145833  0.000000     12.000000
 -0.479167  0.145833  0.000000     12.000000
 -0.458333  0.145833  0.000000     12.000000
 -0.437500  0.145833  0.000000     12.000000
  0.333333  0.166667  0.000000      6.000000
  0.354167  0.166667  0.000000     12.000000
  0.375000  0.166667  0.000000     12.000000
  0.395833  0.166667  0.000000     12.000000
  0.416667  0.166667  0.000000     12.000000
  0.437500  0.166667  0.000000     12.000000
  0.458333  0.166667  0.000000     12.000000
  0.479167  0.166667  0.000000     12.000000
  0.500000  0.166667  0.000000     12.000000
 -0.479167  0.166667  0.000000     12.000000
 -0.458333  0.166667  0.000000     12.000000
 -0.437500  0.166667  0.000000     12.000000
 -0.416667  0.166667  0.000000      6.000000
  0.375000  0.187500  0.000000      6.000000
  0.395833  0.187500  0.000000     12.000000
  0.416667  0.187500  0.000000     12.000000
  0.437500  0.187500  0.000000     12.000000
  0.458333  0.187500  0.000000     12.000000
  0.479167  0.187500  0.000000     12.000000
  0.500000  0.187500  0.000000     12.000000
 -0.479167  0.187500  0.000000     12.000000
 -0.458333  0.187500  0.000000     12.000000
 -0.437500  0.187500  0.000000     12.000000
 -0.416667  0.187500  0.000000     12.000000
  0.416667  0.208333  0.000000      6.000000
  0.437500  0.208333  0.000000     12.000000
  0.458333  0.208333  0.000000     12.000000
  0.479167  0.208333  0.000000     12.000000
  0.500000  0.208333  0.000000     12.000000
 -0.479167  0.208333  0.000000     12.000000
 -0.458333  0.208333  0.000000     12.000000
 -0.437500  0.208333  0.000000     12.000000
 -0.416667  0.208333  0.000000     12.000000
 -0.395833  0.208333  0.000000      6.000000
  0.458333  0.229167  0.000000      6.000000
  0.479167  0.229167  0.000000     12.000000
  0.500000  0.229167  0.000000     12.000000
 -0.479167  0.229167  0.000000     12.000000
 -0.458333  0.229167  0.000000     12.000000
 -0.437500  0.229167  0.000000     12.000000
 -0.416667  0.229167  0.000000     12.000000
 -0.395833  0.229167  0.000000     12.000000
  0.500000  0.250000  0.000000      6.000000
 -0.479167  0.250000  0.000000     12.000000
 -0.458333  0.250000  0.000000     12.000000
 -0.437500  0.250000  0.000000     12.000000
 -0.416667  0.250000  0.000000     12.000000
 -0.395833  0.250000  0.000000     12.000000
 -0.375000  0.250000  0.000000      6.000000
 -0.458333  0.270833  0.000000      6.000000
 -0.437500  0.270833  0.000000     12.000000
 -0.416667  0.270833  0.000000     12.000000
 -0.395833  0.270833  0.000000     12.000000
 -0.375000  0.270833  0.000000     12.000000
 -0.416667  0.291667  0.000000      6.000000
 -0.395833  0.291667  0.000000     12.000000
 -0.375000  0.291667  0.000000     12.000000
 -0.354167  0.291667  0.000000      6.000000
 -0.375000  0.312500  0.000000      6.000000
 -0.354167  0.312500  0.000000     12.000000
 -0.333333  0.333333  0.000000      2.000000
 
 Following cartesian coordinates:
            Coordinates               Weight
  0.000000  0.000000  0.000000      1.000000
  0.007211 -0.004163  0.000000      6.000000
  0.014423 -0.008327  0.000000      6.000000
  0.021634 -0.012490  0.000000      6.000000
  0.028845 -0.016654  0.000000      6.000000
  0.036056 -0.020817  0.000000      6.000000
  0.043268 -0.024981  0.000000      6.000000
  0.050479 -0.029144  0.000000      6.000000
  0.057690 -0.033307  0.000000      6.000000
  0.064901 -0.037471  0.000000      6.000000
  0.072113 -0.041634  0.000000      6.000000
  0.079324 -0.045798  0.000000      6.000000
  0.086535 -0.049961  0.000000      6.000000
  0.093746 -0.054125  0.000000      6.000000
  0.100958 -0.058288  0.000000      6.000000
  0.108169 -0.062451  0.000000      6.000000
  0.115380 -0.066615  0.000000      6.000000
  0.122591 -0.070778  0.000000      6.000000
  0.129803 -0.074942  0.000000      6.000000
  0.137014 -0.079105  0.000000      6.000000
  0.144225 -0.083268  0.000000      6.000000
  0.151436 -0.087432  0.000000      6.000000
  0.158648 -0.091595  0.000000      6.000000
  0.165859 -0.095759  0.000000      6.000000
  0.173070 -0.099922  0.000000      3.000000
  0.014423 -0.000000  0.000000      6.000000
  0.021634 -0.004163  0.000000     12.000000
  0.028845 -0.008327  0.000000     12.000000
  0.036056 -0.012490  0.000000     12.000000
  0.043268 -0.016654  0.000000     12.000000
  0.050479 -0.020817  0.000000     12.000000
  0.057690 -0.024981  0.000000     12.000000
  0.064901 -0.029144  0.000000     12.000000
  0.072113 -0.033307  0.000000     12.000000
  0.079324 -0.037471  0.000000     12.000000
  0.086535 -0.041634  0.000000     12.000000
  0.093746 -0.045798  0.000000     12.000000
  0.100958 -0.049961  0.000000     12.000000
  0.108169 -0.054125  0.000000     12.000000
  0.115380 -0.058288  0.000000     12.000000
  0.122591 -0.062451  0.000000     12.000000
  0.129803 -0.066615  0.000000     12.000000
  0.137014 -0.070778  0.000000     12.000000
  0.144225 -0.074942  0.000000     12.000000
  0.151436 -0.079105  0.000000     12.000000
  0.158648 -0.083268  0.000000     12.000000
  0.165859 -0.087432  0.000000     12.000000
  0.173070 -0.091595  0.000000     12.000000
  0.028845  0.000000  0.000000      6.000000
  0.036056 -0.004163  0.000000     12.000000
  0.043268 -0.008327  0.000000     12.000000
  0.050479 -0.012490  0.000000     12.000000
  0.057690 -0.016654  0.000000     12.000000
  0.064901 -0.020817  0.000000     12.000000
  0.072113 -0.024981  0.000000     12.000000
  0.079324 -0.029144  0.000000     12.000000
  0.086535 -0.033307  0.000000     12.000000
  0.093746 -0.037471  0.000000     12.000000
  0.100958 -0.041634  0.000000     12.000000
  0.108169 -0.045798  0.000000     12.000000
  0.115380 -0.049961  0.000000     12.000000
  0.122591 -0.054125  0.000000     12.000000
  0.129803 -0.058288  0.000000     12.000000
  0.137014 -0.062451  0.000000     12.000000
  0.144225 -0.066615  0.000000     12.000000
  0.151436 -0.070778  0.000000     12.000000
  0.158648 -0.074942  0.000000     12.000000
  0.165859 -0.079105  0.000000     12.000000
  0.173070 -0.083268  0.000000     12.000000
 -0.165859  0.112412  0.000000      6.000000
  0.043268  0.000000  0.000000      6.000000
  0.050479 -0.004163  0.000000     12.000000
  0.057690 -0.008327  0.000000     12.000000
  0.064901 -0.012490  0.000000     12.000000
  0.072113 -0.016654  0.000000     12.000000
  0.079324 -0.020817  0.000000     12.000000
  0.086535 -0.024981  0.000000     12.000000
  0.093746 -0.029144  0.000000     12.000000
  0.100958 -0.033307  0.000000     12.000000
  0.108169 -0.037471  0.000000     12.000000
  0.115380 -0.041634  0.000000     12.000000
  0.122591 -0.045798  0.000000     12.000000
  0.129803 -0.049961  0.000000     12.000000
  0.137014 -0.054125  0.000000     12.000000
  0.144225 -0.058288  0.000000     12.000000
  0.151436 -0.062451  0.000000     12.000000
  0.158648 -0.066615  0.000000     12.000000
  0.165859 -0.070778  0.000000     12.000000
  0.173070 -0.074942  0.000000     12.000000
 -0.165859  0.120739  0.000000     12.000000
  0.057690 -0.000000  0.000000      6.000000
  0.064901 -0.004163  0.000000     12.000000
  0.072113 -0.008327  0.000000     12.000000
  0.079324 -0.012490  0.000000     12.000000
  0.086535 -0.016654  0.000000     12.000000
  0.093746 -0.020817  0.000000     12.000000
  0.100958 -0.024981  0.000000     12.000000
  0.108169 -0.029144  0.000000     12.000000
  0.115380 -0.033307  0.000000     12.000000
  0.122591 -0.037471  0.000000     12.000000
  0.129803 -0.041634  0.000000     12.000000
  0.137014 -0.045798  0.000000     12.000000
  0.144225 -0.049961  0.000000     12.000000
  0.151436 -0.054125  0.000000     12.000000
  0.158648 -0.058288  0.000000     12.000000
  0.165859 -0.062451  0.000000     12.000000
  0.173070 -0.066615  0.000000     12.000000
 -0.165859  0.129066  0.000000     12.000000
 -0.158648  0.124903  0.000000      6.000000
  0.072113  0.000000  0.000000      6.000000
  0.079324 -0.004163  0.000000     12.000000
  0.086535 -0.008327  0.000000     12.000000
  0.093746 -0.012490  0.000000     12.000000
  0.100958 -0.016654  0.000000     12.000000
  0.108169 -0.020817  0.000000     12.000000
  0.115380 -0.024981  0.000000     12.000000
  0.122591 -0.029144  0.000000     12.000000
  0.129803 -0.033307  0.000000     12.000000
  0.137014 -0.037471  0.000000     12.000000
  0.144225 -0.041634  0.000000     12.000000
  0.151436 -0.045798  0.000000     12.000000
  0.158648 -0.049961  0.000000     12.000000
  0.165859 -0.054125  0.000000     12.000000
  0.173070 -0.058288  0.000000     12.000000
 -0.165859  0.137393  0.000000     12.000000
 -0.158648  0.133230  0.000000     12.000000
  0.086535  0.000000  0.000000      6.000000
  0.093746 -0.004163  0.000000     12.000000
  0.100958 -0.008327  0.000000     12.000000
  0.108169 -0.012490  0.000000     12.000000
  0.115380 -0.016654  0.000000     12.000000
  0.122591 -0.020817  0.000000     12.000000
  0.129803 -0.024981  0.000000     12.000000
  0.137014 -0.029144  0.000000     12.000000
  0.144225 -0.033307  0.000000     12.000000
  0.151436 -0.037471  0.000000     12.000000
  0.158648 -0.041634  0.000000     12.000000
  0.165859 -0.045798  0.000000     12.000000
  0.173070 -0.049961  0.000000     12.000000
 -0.165859  0.145720  0.000000     12.000000
 -0.158648  0.141556  0.000000     12.000000
 -0.151436  0.137393  0.000000      6.000000
  0.100958 -0.000000  0.000000      6.000000
  0.108169 -0.004163  0.000000     12.000000
  0.115380 -0.008327  0.000000     12.000000
  0.122591 -0.012490  0.000000     12.000000
  0.129803 -0.016654  0.000000     12.000000
  0.137014 -0.020817  0.000000     12.000000
  0.144225 -0.024981  0.000000     12.000000
  0.151436 -0.029144  0.000000     12.000000
  0.158648 -0.033307  0.000000     12.000000
  0.165859 -0.037471  0.000000     12.000000
  0.173070 -0.041634  0.000000     12.000000
 -0.165859  0.154047  0.000000     12.000000
 -0.158648  0.149883  0.000000     12.000000
 -0.151436  0.145720  0.000000     12.000000
  0.115380  0.000000  0.000000      6.000000
  0.122591 -0.004163  0.000000     12.000000
  0.129803 -0.008327  0.000000     12.000000
  0.137014 -0.012490  0.000000     12.000000
  0.144225 -0.016654  0.000000     12.000000
  0.151436 -0.020817  0.000000     12.000000
  0.158648 -0.024981  0.000000     12.000000
  0.165859 -0.029144  0.000000     12.000000
  0.173070 -0.033307  0.000000     12.000000
 -0.165859  0.162374  0.000000     12.000000
 -0.158648  0.158210  0.000000     12.000000
 -0.151436  0.154047  0.000000     12.000000
 -0.144225  0.149883  0.000000      6.000000
  0.129803  0.000000  0.000000      6.000000
  0.137014 -0.004163  0.000000     12.000000
  0.144225 -0.008327  0.000000     12.000000
  0.151436 -0.012490  0.000000     12.000000
  0.158648 -0.016654  0.000000     12.000000
  0.165859 -0.020817  0.000000     12.000000
  0.173070 -0.024981  0.000000     12.000000
 -0.165859  0.170700  0.000000     12.000000
 -0.158648  0.166537  0.000000     12.000000
 -0.151436  0.162374  0.000000     12.000000
 -0.144225  0.158210  0.000000     12.000000
  0.144225 -0.000000  0.000000      6.000000
  0.151436 -0.004163  0.000000     12.000000
  0.158648 -0.008327  0.000000     12.000000
  0.165859 -0.012490  0.000000     12.000000
  0.173070 -0.016654  0.000000     12.000000
 -0.165859  0.179027  0.000000     12.000000
 -0.158648  0.174864  0.000000     12.000000
 -0.151436  0.170700  0.000000     12.000000
 -0.144225  0.166537  0.000000     12.000000
 -0.137014  0.162374  0.000000      6.000000
  0.158648  0.000000  0.000000      6.000000
  0.165859 -0.004163  0.000000     12.000000
  0.173070 -0.008327  0.000000     12.000000
 -0.165859  0.187354  0.000000     12.000000
 -0.158648  0.183191  0.000000     12.000000
 -0.151436  0.179027  0.000000     12.000000
 -0.144225  0.174864  0.000000     12.000000
 -0.137014  0.170700  0.000000     12.000000
  0.173070  0.000000  0.000000      6.000000
 -0.165859  0.195681  0.000000     12.000000
 -0.158648  0.191517  0.000000     12.000000
 -0.151436  0.187354  0.000000     12.000000
 -0.144225  0.183191  0.000000     12.000000
 -0.137014  0.179027  0.000000     12.000000
 -0.129803  0.174864  0.000000      6.000000
 -0.158648  0.199844  0.000000      6.000000
 -0.151436  0.195681  0.000000     12.000000
 -0.144225  0.191517  0.000000     12.000000
 -0.137014  0.187354  0.000000     12.000000
 -0.129803  0.183191  0.000000     12.000000
 -0.144225  0.199844  0.000000      6.000000
 -0.137014  0.195681  0.000000     12.000000
 -0.129803  0.191517  0.000000     12.000000
 -0.122591  0.187354  0.000000      6.000000
 -0.129803  0.199844  0.000000      6.000000
 -0.122591  0.195681  0.000000     12.000000
 -0.115380  0.199844  0.000000      2.000000
 
 TETIRR: Found   1174 inequivalent tetrahedra from    13824


--------------------------------------------------------------------------------------------------------




 Dimension of arrays:
   k-points           NKPTS =    217   k-points in BZ     NKDIM =    217   number of bands    NBANDS=     24
   number of dos      NEDOS =   5501   number of ions     NIONS =      4
   non local maximal  LDIM  =      6   non local SUM 2l+1 LMDIM =     18
   total plane-waves  NPLWV =  67200
   max r-space proj   IRMAX =      1   max aug-charges    IRDMAX=  18132
   dimension x,y,z NGX =    20 NGY =   20 NGZ =  168
   dimension x,y,z NGXF=    40 NGYF=   40 NGZF=  336
   support grid    NGXF=    40 NGYF=   40 NGZF=  336
   ions per type =               3   1
   NGX,Y,Z   is equivalent  to a cutoff of  11.51, 11.51, 10.96 a.u.
   NGXF,Y,Z  is equivalent  to a cutoff of  23.02, 23.02, 21.92 a.u.

 SYSTEM =  Ag Slab                                 
 POSCAR =  Ag(111) Slab                            

 Startparameter for this run:
   NWRITE =      2    write-flag & timer
   PREC   = accura    normal or accurate (medium, high low for compatibility)
   ISTART =      0    job   : 0-new  1-cont  2-samecut
   ICHARG =     11    charge: 1-file 2-atom 10-const
   ISPIN  =      1    spin polarized calculation?
   LNONCOLLINEAR =      F non collinear calculations
   LSORBIT =      F    spin-orbit coupling
   INIWAV =      1    electr: 0-lowe 1-rand  2-diag
   LASPH  =      F    aspherical Exc in radial PAW
   METAGGA=      F    non-selfconsistent MetaGGA calc.

 Electronic Relaxation 1
   ENCUT  =  400.0 eV  29.40 Ry    5.42 a.u.   4.71  4.71 41.56*2*pi/ulx,y,z
   ENINI  =  400.0     initial cutoff
   ENAUG  =  412.5 eV  augmentation charge cutoff
   NELM   =     60;   NELMIN=  2; NELMDL= -5     # of ELM steps 
   EDIFF  = 0.1E-05   stopping-criterion for ELM
   LREAL  =      F    real-space projection
   NLSPLINE    = F    spline interpolate recip. space projectors
   LCOMPAT=      F    compatible to vasp.4.4
   GGA_COMPAT  = T    GGA compatible to vasp.4.4-vasp.4.6
   LMAXPAW     = -100 max onsite density
   LMAXMIX     =    2 max onsite mixed and CHGCAR
   VOSKOWN=      0    Vosko Wilk Nusair interpolation
   ROPT   =    0.00000   0.00000
 Ionic relaxation
   EDIFFG = -.1E-01   stopping-criterion for IOM
   NSW    =      0    number of steps for IOM
   NBLOCK =      1;   KBLOCK =      1    inner block; outer block 
   IBRION =     -1    ionic relax: 0-MD 1-quasi-New 2-CG
   NFREE  =      0    steps in history (QN), initial steepest desc. (CG)
   ISIF   =      2    stress and relaxation
   IWAVPR =     10    prediction:  0-non 1-charg 2-wave 3-comb
   ISYM   =      2    0-nonsym 1-usesym 2-fastsym
   LCORR  =      T    Harris-Foulkes like correction to forces

   POTIM  = 0.5000    time-step for ionic-motion
   TEIN   =    0.0    initial temperature
   TEBEG  =    0.0;   TEEND  =   0.0 temperature during run
   SMASS  =  -3.00    Nose mass-parameter (am)
   estimated Nose-frequenzy (Omega)   =  0.10E-29 period in steps =****** mass=  -0.191E-27a.u.
   SCALEE = 1.0000    scale energy and forces
   NPACO  =    256;   APACO  = 16.0  distance and # of slots for P.C.
   PSTRESS=    0.0 pullay stress

  Mass of Ions in am
   POMASS = 107.87  1.00
  Ionic Valenz
   ZVAL   =  11.00  1.00
  Atomic Wigner-Seitz radii
   RWIGS  =  -1.00 -1.00
  virtual crystal weights 
   VCA    =   1.00  1.00
   NELECT =      34.0000    total number of electrons
   NUPDOWN=      -1.0000    fix difference up-down

 DOS related values:
   EMIN   =  10.00;   EMAX   =-10.00  energy-range for DOS
   EFERMI =   0.00
   ISMEAR =    -5;   SIGMA  =   0.05  broadening in eV -4-tet -1-fermi 0-gaus

 Electronic relaxation 2 (details)
   IALGO  =     38    algorithm
   LDIAG  =      T    sub-space diagonalisation (order eigenvalues)
   LSUBROT=      F    optimize rotation matrix (better conditioning)
   TURBO    =      0    0=normal 1=particle mesh
   IRESTART =      0    0=no restart 2=restart with 2 vectors
   NREBOOT  =      0    no. of reboots
   NMIN     =      0    reboot dimension
   EREF     =   0.00    reference energy to select bands
   IMIX   =      4    mixing-type and parameters
     AMIX     =   0.40;   BMIX     =  1.00
     AMIX_MAG =   1.60;   BMIX_MAG =  1.00
     AMIN     =   0.10
     WC   =   100.;   INIMIX=   1;  MIXPRE=   1;  MAXMIX= -45

 Intra band minimization:
   WEIMIN = 0.0000     energy-eigenvalue tresh-hold
   EBREAK =  0.10E-07  absolut break condition
   DEPER  =   0.30     relativ break condition  

   TIME   =   0.40     timestep for ELM

  volume/ion in A,a.u.               =      46.06       310.81
  Fermi-wavevector in a.u.,A,eV,Ry     =   0.932071  1.761358 11.820143  0.868756
  Thomas-Fermi vector in A             =   2.058630
 
 Write flags
   LWAVE        =      F    write WAVECAR
   LDOWNSAMPLE  =      F    k-point downsampling of WAVECAR
   LCHARG       =      T    write CHGCAR
   LVTOT        =      F    write LOCPOT, total local potential
   LVHAR        =      F    write LOCPOT, Hartree potential only
   LELF         =      F    write electronic localiz. function (ELF)
   LORBIT       =     11    0 simple, 1 ext, 2 COOP (PROOUT), +10 PAW based schemes


 Dipole corrections
   LMONO  =      F    monopole corrections only (constant potential shift)
   LDIPOL =      F    correct potential (dipole corrections)
   IDIPOL =      0    1-x, 2-y, 3-z, 4-all directions 
   EPSILON=  1.0000000 bulk dielectric constant

 Exchange correlation treatment:
   GGA     =    --    GGA type
   LEXCH   =     8    internal setting for exchange type
   VOSKOWN=      0    Vosko Wilk Nusair interpolation
   LHFCALC =     F    Hartree Fock is set to
   LHFONE  =     F    Hartree Fock one center treatment
   AEXX    =    0.0000 exact exchange contribution

 Linear response parameters
   LEPSILON=     F    determine dielectric tensor
   LRPA    =     F    only Hartree local field effects (RPA)
   LNABLA  =     F    use nabla operator in PAW spheres
   LVEL    =     F    velocity operator in full k-point grid
   LINTERFAST=   F  fast interpolation
   KINTER  =     0    interpolate to denser k-point grid
   CSHIFT  =0.1000    complex shift for real part using Kramers Kronig
   OMEGAMAX=  -1.0    maximum frequency
   DEG_THRESHOLD= 0.2000000E-02 threshold for treating states as degnerate
   RTIME   =   -0.100 relaxation time in fs
  (WPLASMAI=    0.000 imaginary part of plasma frequency in eV, 0.658/RTIME)
   DFIELD  = 0.0000000 0.0000000 0.0000000 field for delta impulse in time
 
 Orbital magnetization related:
   ORBITALMAG=     F  switch on orbital magnetization
   LCHIMAG   =     F  perturbation theory with respect to B field
   DQ        =  0.001000  dq finite difference perturbation B field
   LLRAUG    =     F  two centre corrections for induced B field



--------------------------------------------------------------------------------------------------------


 Static calculation
 charge density and potential remain constant during run
 non-spin polarized calculation
 Variant of blocked Davidson
 Davidson routine will perform the subspace rotation
 perform sub-space diagonalisation
    after iterative eigenvector-optimisation
 no mixing
 using additional bands            7
 reciprocal scheme for non local part
 use partial core corrections
 calculate Harris-corrections to forces 
   (improved forces if not selfconsistent)
 use gradient corrections 
 WARNING: stress and forces are not correct
  (second derivative of E(xc) not defined)
 use of overlap-Matrix (Vanderbilt PP)
 Fermi weights with tetrahedron method with Bloechl corrections


--------------------------------------------------------------------------------------------------------


  energy-cutoff  :      400.00
  volume of cell :      184.23
      direct lattice vectors                 reciprocal lattice vectors
     2.889000000  0.000000000  0.000000000     0.346140533 -0.199844330  0.000000000
     1.444500000  2.501947392  0.000000000     0.000000000  0.399688660  0.000000000
     0.000000000  0.000000000 25.487717245     0.000000000  0.000000000  0.039234585

  length of vectors
     2.889000000  2.889000000 25.487717245     0.399688660  0.399688660  0.039234585


 
 k-points in units of 2pi/SCALE and weight: K-Points                                
   0.00000000  0.00000000  0.00000000       0.000
   0.00721126 -0.00416342  0.00000000       0.003
   0.01442252 -0.00832685  0.00000000       0.003
   0.02163378 -0.01249027  0.00000000       0.003
   0.02884504 -0.01665369  0.00000000       0.003
   0.03605631 -0.02081712  0.00000000       0.003
   0.04326757 -0.02498054  0.00000000       0.003
   0.05047883 -0.02914396  0.00000000       0.003
   0.05769009 -0.03330739  0.00000000       0.003
   0.06490135 -0.03747081  0.00000000       0.003
   0.07211261 -0.04163424  0.00000000       0.003
   0.07932387 -0.04579766  0.00000000       0.003
   0.08653513 -0.04996108  0.00000000       0.003
   0.09374639 -0.05412451  0.00000000       0.003
   0.10095766 -0.05828793  0.00000000       0.003
   0.10816892 -0.06245135  0.00000000       0.003
   0.11538018 -0.06661478  0.00000000       0.003
   0.12259144 -0.07077820  0.00000000       0.003
   0.12980270 -0.07494162  0.00000000       0.003
   0.13701396 -0.07910505  0.00000000       0.003
   0.14422522 -0.08326847  0.00000000       0.003
   0.15143648 -0.08743189  0.00000000       0.003
   0.15864774 -0.09159532  0.00000000       0.003
   0.16585901 -0.09575874  0.00000000       0.003
   0.17307027 -0.09992216  0.00000000       0.001
   0.01442252 -0.00000000  0.00000000       0.003
   0.02163378 -0.00416342  0.00000000       0.005
   0.02884504 -0.00832685  0.00000000       0.005
   0.03605631 -0.01249027  0.00000000       0.005
   0.04326757 -0.01665369  0.00000000       0.005
   0.05047883 -0.02081712  0.00000000       0.005
   0.05769009 -0.02498054  0.00000000       0.005
   0.06490135 -0.02914396  0.00000000       0.005
   0.07211261 -0.03330739  0.00000000       0.005
   0.07932387 -0.03747081  0.00000000       0.005
   0.08653513 -0.04163424  0.00000000       0.005
   0.09374639 -0.04579766  0.00000000       0.005
   0.10095766 -0.04996108  0.00000000       0.005
   0.10816892 -0.05412451  0.00000000       0.005
   0.11538018 -0.05828793  0.00000000       0.005
   0.12259144 -0.06245135  0.00000000       0.005
   0.12980270 -0.06661478  0.00000000       0.005
   0.13701396 -0.07077820  0.00000000       0.005
   0.14422522 -0.07494162  0.00000000       0.005
   0.15143648 -0.07910505  0.00000000       0.005
   0.15864774 -0.08326847  0.00000000       0.005
   0.16585901 -0.08743189  0.00000000       0.005
   0.17307027 -0.09159532  0.00000000       0.005
   0.02884504  0.00000000  0.00000000       0.003
   0.03605631 -0.00416342  0.00000000       0.005
   0.04326757 -0.00832685  0.00000000       0.005
   0.05047883 -0.01249027  0.00000000       0.005
   0.05769009 -0.01665369  0.00000000       0.005
   0.06490135 -0.02081712  0.00000000       0.005
   0.07211261 -0.02498054  0.00000000       0.005
   0.07932387 -0.02914396  0.00000000       0.005
   0.08653513 -0.03330739  0.00000000       0.005
   0.09374639 -0.03747081  0.00000000       0.005
   0.10095766 -0.04163424  0.00000000       0.005
   0.10816892 -0.04579766  0.00000000       0.005
   0.11538018 -0.04996108  0.00000000       0.005
   0.12259144 -0.05412451  0.00000000       0.005
   0.12980270 -0.05828793  0.00000000       0.005
   0.13701396 -0.06245135  0.00000000       0.005
   0.14422522 -0.06661478  0.00000000       0.005
   0.15143648 -0.07077820  0.00000000       0.005
   0.15864774 -0.07494162  0.00000000       0.005
   0.16585901 -0.07910505  0.00000000       0.005
   0.17307027 -0.08326847  0.00000000       0.005
  -0.16585901  0.11241244  0.00000000       0.003
   0.04326757  0.00000000  0.00000000       0.003
   0.05047883 -0.00416342  0.00000000       0.005
   0.05769009 -0.00832685  0.00000000       0.005
   0.06490135 -0.01249027  0.00000000       0.005
   0.07211261 -0.01665369  0.00000000       0.005
   0.07932387 -0.02081712  0.00000000       0.005
   0.08653513 -0.02498054  0.00000000       0.005
   0.09374639 -0.02914396  0.00000000       0.005
   0.10095766 -0.03330739  0.00000000       0.005
   0.10816892 -0.03747081  0.00000000       0.005
   0.11538018 -0.04163424  0.00000000       0.005
   0.12259144 -0.04579766  0.00000000       0.005
   0.12980270 -0.04996108  0.00000000       0.005
   0.13701396 -0.05412451  0.00000000       0.005
   0.14422522 -0.05828793  0.00000000       0.005
   0.15143648 -0.06245135  0.00000000       0.005
   0.15864774 -0.06661478  0.00000000       0.005
   0.16585901 -0.07077820  0.00000000       0.005
   0.17307027 -0.07494162  0.00000000       0.005
  -0.16585901  0.12073928  0.00000000       0.005
   0.05769009 -0.00000000  0.00000000       0.003
   0.06490135 -0.00416342  0.00000000       0.005
   0.07211261 -0.00832685  0.00000000       0.005
   0.07932387 -0.01249027  0.00000000       0.005
   0.08653513 -0.01665369  0.00000000       0.005
   0.09374639 -0.02081712  0.00000000       0.005
   0.10095766 -0.02498054  0.00000000       0.005
   0.10816892 -0.02914396  0.00000000       0.005
   0.11538018 -0.03330739  0.00000000       0.005
   0.12259144 -0.03747081  0.00000000       0.005
   0.12980270 -0.04163424  0.00000000       0.005
   0.13701396 -0.04579766  0.00000000       0.005
   0.14422522 -0.04996108  0.00000000       0.005
   0.15143648 -0.05412451  0.00000000       0.005
   0.15864774 -0.05828793  0.00000000       0.005
   0.16585901 -0.06245135  0.00000000       0.005
   0.17307027 -0.06661478  0.00000000       0.005
  -0.16585901  0.12906613  0.00000000       0.005
  -0.15864774  0.12490271  0.00000000       0.003
   0.07211261  0.00000000  0.00000000       0.003
   0.07932387 -0.00416342  0.00000000       0.005
   0.08653513 -0.00832685  0.00000000       0.005
   0.09374639 -0.01249027  0.00000000       0.005
   0.10095766 -0.01665369  0.00000000       0.005
   0.10816892 -0.02081712  0.00000000       0.005
   0.11538018 -0.02498054  0.00000000       0.005
   0.12259144 -0.02914396  0.00000000       0.005
   0.12980270 -0.03330739  0.00000000       0.005
   0.13701396 -0.03747081  0.00000000       0.005
   0.14422522 -0.04163424  0.00000000       0.005
   0.15143648 -0.04579766  0.00000000       0.005
   0.15864774 -0.04996108  0.00000000       0.005
   0.16585901 -0.05412451  0.00000000       0.005
   0.17307027 -0.05828793  0.00000000       0.005
  -0.16585901  0.13739298  0.00000000       0.005
  -0.15864774  0.13322955  0.00000000       0.005
   0.08653513  0.00000000  0.00000000       0.003
   0.09374639 -0.00416342  0.00000000       0.005
   0.10095766 -0.00832685  0.00000000       0.005
   0.10816892 -0.01249027  0.00000000       0.005
   0.11538018 -0.01665369  0.00000000       0.005
   0.12259144 -0.02081712  0.00000000       0.005
   0.12980270 -0.02498054  0.00000000       0.005
   0.13701396 -0.02914396  0.00000000       0.005
   0.14422522 -0.03330739  0.00000000       0.005
   0.15143648 -0.03747081  0.00000000       0.005
   0.15864774 -0.04163424  0.00000000       0.005
   0.16585901 -0.04579766  0.00000000       0.005
   0.17307027 -0.04996108  0.00000000       0.005
  -0.16585901  0.14571982  0.00000000       0.005
  -0.15864774  0.14155640  0.00000000       0.005
  -0.15143648  0.13739298  0.00000000       0.003
   0.10095766 -0.00000000  0.00000000       0.003
   0.10816892 -0.00416342  0.00000000       0.005
   0.11538018 -0.00832685  0.00000000       0.005
   0.12259144 -0.01249027  0.00000000       0.005
   0.12980270 -0.01665369  0.00000000       0.005
   0.13701396 -0.02081712  0.00000000       0.005
   0.14422522 -0.02498054  0.00000000       0.005
   0.15143648 -0.02914396  0.00000000       0.005
   0.15864774 -0.03330739  0.00000000       0.005
   0.16585901 -0.03747081  0.00000000       0.005
   0.17307027 -0.04163424  0.00000000       0.005
  -0.16585901  0.15404667  0.00000000       0.005
  -0.15864774  0.14988325  0.00000000       0.005
  -0.15143648  0.14571982  0.00000000       0.005
   0.11538018  0.00000000  0.00000000       0.003
   0.12259144 -0.00416342  0.00000000       0.005
   0.12980270 -0.00832685  0.00000000       0.005
   0.13701396 -0.01249027  0.00000000       0.005
   0.14422522 -0.01665369  0.00000000       0.005
   0.15143648 -0.02081712  0.00000000       0.005
   0.15864774 -0.02498054  0.00000000       0.005
   0.16585901 -0.02914396  0.00000000       0.005
   0.17307027 -0.03330739  0.00000000       0.005
  -0.16585901  0.16237352  0.00000000       0.005
  -0.15864774  0.15821009  0.00000000       0.005
  -0.15143648  0.15404667  0.00000000       0.005
  -0.14422522  0.14988325  0.00000000       0.003
   0.12980270 -0.00000000  0.00000000       0.003
   0.13701396 -0.00416342  0.00000000       0.005
   0.14422522 -0.00832685  0.00000000       0.005
   0.15143648 -0.01249027  0.00000000       0.005
   0.15864774 -0.01665369  0.00000000       0.005
   0.16585901 -0.02081712  0.00000000       0.005
   0.17307027 -0.02498054  0.00000000       0.005
  -0.16585901  0.17070037  0.00000000       0.005
  -0.15864774  0.16653694  0.00000000       0.005
  -0.15143648  0.16237352  0.00000000       0.005
  -0.14422522  0.15821009  0.00000000       0.005
   0.14422522 -0.00000000  0.00000000       0.003
   0.15143648 -0.00416342  0.00000000       0.005
   0.15864774 -0.00832685  0.00000000       0.005
   0.16585901 -0.01249027  0.00000000       0.005
   0.17307027 -0.01665369  0.00000000       0.005
  -0.16585901  0.17902721  0.00000000       0.005
  -0.15864774  0.17486379  0.00000000       0.005
  -0.15143648  0.17070037  0.00000000       0.005
  -0.14422522  0.16653694  0.00000000       0.005
  -0.13701396  0.16237352  0.00000000       0.003
   0.15864774  0.00000000  0.00000000       0.003
   0.16585901 -0.00416342  0.00000000       0.005
   0.17307027 -0.00832685  0.00000000       0.005
  -0.16585901  0.18735406  0.00000000       0.005
  -0.15864774  0.18319064  0.00000000       0.005
  -0.15143648  0.17902721  0.00000000       0.005
  -0.14422522  0.17486379  0.00000000       0.005
  -0.13701396  0.17070037  0.00000000       0.005
   0.17307027  0.00000000  0.00000000       0.003
  -0.16585901  0.19568091  0.00000000       0.005
  -0.15864774  0.19151748  0.00000000       0.005
  -0.15143648  0.18735406  0.00000000       0.005
  -0.14422522  0.18319064  0.00000000       0.005
  -0.13701396  0.17902721  0.00000000       0.005
  -0.12980270  0.17486379  0.00000000       0.003
  -0.15864774  0.19984433  0.00000000       0.003
  -0.15143648  0.19568091  0.00000000       0.005
  -0.14422522  0.19151748  0.00000000       0.005
  -0.13701396  0.18735406  0.00000000       0.005
  -0.12980270  0.18319064  0.00000000       0.005
  -0.14422522  0.19984433  0.00000000       0.003
  -0.13701396  0.19568091  0.00000000       0.005
  -0.12980270  0.19151748  0.00000000       0.005
  -0.12259144  0.18735406  0.00000000       0.003
  -0.12980270  0.19984433  0.00000000       0.003
  -0.12259144  0.19568091  0.00000000       0.005
  -0.11538018  0.19984433  0.00000000       0.001
 
 k-points in reciprocal lattice and weights: K-Points                                
   0.00000000  0.00000000  0.00000000       0.000
   0.02083333  0.00000000  0.00000000       0.003
   0.04166667  0.00000000  0.00000000       0.003
   0.06250000  0.00000000  0.00000000       0.003
   0.08333333  0.00000000  0.00000000       0.003
   0.10416667 -0.00000000  0.00000000       0.003
   0.12500000  0.00000000  0.00000000       0.003
   0.14583333  0.00000000  0.00000000       0.003
   0.16666667  0.00000000  0.00000000       0.003
   0.18750000  0.00000000  0.00000000       0.003
   0.20833333  0.00000000  0.00000000       0.003
   0.22916667  0.00000000  0.00000000       0.003
   0.25000000  0.00000000  0.00000000       0.003
   0.27083333 -0.00000000  0.00000000       0.003
   0.29166667  0.00000000  0.00000000       0.003
   0.31250000  0.00000000  0.00000000       0.003
   0.33333333  0.00000000  0.00000000       0.003
   0.35416667 -0.00000000  0.00000000       0.003
   0.37500000  0.00000000  0.00000000       0.003
   0.39583333 -0.00000000  0.00000000       0.003
   0.41666667  0.00000000  0.00000000       0.003
   0.43750000  0.00000000  0.00000000       0.003
   0.45833333  0.00000000  0.00000000       0.003
   0.47916667 -0.00000000  0.00000000       0.003
   0.50000000  0.00000000  0.00000000       0.001
   0.04166667  0.02083333  0.00000000       0.003
   0.06250000  0.02083333  0.00000000       0.005
   0.08333333  0.02083333  0.00000000       0.005
   0.10416667  0.02083333  0.00000000       0.005
   0.12500000  0.02083333  0.00000000       0.005
   0.14583333  0.02083333  0.00000000       0.005
   0.16666667  0.02083333  0.00000000       0.005
   0.18750000  0.02083333  0.00000000       0.005
   0.20833333  0.02083333  0.00000000       0.005
   0.22916667  0.02083333  0.00000000       0.005
   0.25000000  0.02083333  0.00000000       0.005
   0.27083333  0.02083333  0.00000000       0.005
   0.29166667  0.02083333  0.00000000       0.005
   0.31250000  0.02083333  0.00000000       0.005
   0.33333333  0.02083333  0.00000000       0.005
   0.35416667  0.02083333  0.00000000       0.005
   0.37500000  0.02083333  0.00000000       0.005
   0.39583333  0.02083333  0.00000000       0.005
   0.41666667  0.02083333  0.00000000       0.005
   0.43750000  0.02083333  0.00000000       0.005
   0.45833333  0.02083333  0.00000000       0.005
   0.47916667  0.02083333  0.00000000       0.005
   0.50000000  0.02083333  0.00000000       0.005
   0.08333333  0.04166667  0.00000000       0.003
   0.10416667  0.04166667  0.00000000       0.005
   0.12500000  0.04166667  0.00000000       0.005
   0.14583333  0.04166667  0.00000000       0.005
   0.16666667  0.04166667  0.00000000       0.005
   0.18750000  0.04166667  0.00000000       0.005
   0.20833333  0.04166667  0.00000000       0.005
   0.22916667  0.04166667  0.00000000       0.005
   0.25000000  0.04166667  0.00000000       0.005
   0.27083333  0.04166667  0.00000000       0.005
   0.29166667  0.04166667  0.00000000       0.005
   0.31250000  0.04166667  0.00000000       0.005
   0.33333333  0.04166667  0.00000000       0.005
   0.35416667  0.04166667  0.00000000       0.005
   0.37500000  0.04166667  0.00000000       0.005
   0.39583333  0.04166667  0.00000000       0.005
   0.41666667  0.04166667  0.00000000       0.005
   0.43750000  0.04166667  0.00000000       0.005
   0.45833333  0.04166667  0.00000000       0.005
   0.47916667  0.04166667  0.00000000       0.005
   0.50000000  0.04166667  0.00000000       0.005
  -0.47916667  0.04166667  0.00000000       0.003
   0.12500000  0.06250000  0.00000000       0.003
   0.14583333  0.06250000  0.00000000       0.005
   0.16666667  0.06250000  0.00000000       0.005
   0.18750000  0.06250000  0.00000000       0.005
   0.20833333  0.06250000  0.00000000       0.005
   0.22916667  0.06250000  0.00000000       0.005
   0.25000000  0.06250000  0.00000000       0.005
   0.27083333  0.06250000  0.00000000       0.005
   0.29166667  0.06250000  0.00000000       0.005
   0.31250000  0.06250000  0.00000000       0.005
   0.33333333  0.06250000  0.00000000       0.005
   0.35416667  0.06250000  0.00000000       0.005
   0.37500000  0.06250000  0.00000000       0.005
   0.39583333  0.06250000  0.00000000       0.005
   0.41666667  0.06250000  0.00000000       0.005
   0.43750000  0.06250000  0.00000000       0.005
   0.45833333  0.06250000  0.00000000       0.005
   0.47916667  0.06250000  0.00000000       0.005
   0.50000000  0.06250000  0.00000000       0.005
  -0.47916667  0.06250000  0.00000000       0.005
   0.16666667  0.08333333  0.00000000       0.003
   0.18750000  0.08333333  0.00000000       0.005
   0.20833333  0.08333333  0.00000000       0.005
   0.22916667  0.08333333  0.00000000       0.005
   0.25000000  0.08333333  0.00000000       0.005
   0.27083333  0.08333333  0.00000000       0.005
   0.29166667  0.08333333  0.00000000       0.005
   0.31250000  0.08333333  0.00000000       0.005
   0.33333333  0.08333333  0.00000000       0.005
   0.35416667  0.08333333  0.00000000       0.005
   0.37500000  0.08333333  0.00000000       0.005
   0.39583333  0.08333333  0.00000000       0.005
   0.41666667  0.08333333  0.00000000       0.005
   0.43750000  0.08333333  0.00000000       0.005
   0.45833333  0.08333333  0.00000000       0.005
   0.47916667  0.08333333  0.00000000       0.005
   0.50000000  0.08333333  0.00000000       0.005
  -0.47916667  0.08333333  0.00000000       0.005
  -0.45833333  0.08333333  0.00000000       0.003
   0.20833333  0.10416667  0.00000000       0.003
   0.22916667  0.10416667  0.00000000       0.005
   0.25000000  0.10416667  0.00000000       0.005
   0.27083333  0.10416667  0.00000000       0.005
   0.29166667  0.10416667  0.00000000       0.005
   0.31250000  0.10416667  0.00000000       0.005
   0.33333333  0.10416667  0.00000000       0.005
   0.35416667  0.10416667  0.00000000       0.005
   0.37500000  0.10416667  0.00000000       0.005
   0.39583333  0.10416667  0.00000000       0.005
   0.41666667  0.10416667  0.00000000       0.005
   0.43750000  0.10416667  0.00000000       0.005
   0.45833333  0.10416667  0.00000000       0.005
   0.47916667  0.10416667  0.00000000       0.005
   0.50000000  0.10416667  0.00000000       0.005
  -0.47916667  0.10416667  0.00000000       0.005
  -0.45833333  0.10416667  0.00000000       0.005
   0.25000000  0.12500000  0.00000000       0.003
   0.27083333  0.12500000  0.00000000       0.005
   0.29166667  0.12500000  0.00000000       0.005
   0.31250000  0.12500000  0.00000000       0.005
   0.33333333  0.12500000  0.00000000       0.005
   0.35416667  0.12500000  0.00000000       0.005
   0.37500000  0.12500000  0.00000000       0.005
   0.39583333  0.12500000  0.00000000       0.005
   0.41666667  0.12500000  0.00000000       0.005
   0.43750000  0.12500000  0.00000000       0.005
   0.45833333  0.12500000  0.00000000       0.005
   0.47916667  0.12500000  0.00000000       0.005
   0.50000000  0.12500000  0.00000000       0.005
  -0.47916667  0.12500000  0.00000000       0.005
  -0.45833333  0.12500000  0.00000000       0.005
  -0.43750000  0.12500000  0.00000000       0.003
   0.29166667  0.14583333  0.00000000       0.003
   0.31250000  0.14583333  0.00000000       0.005
   0.33333333  0.14583333  0.00000000       0.005
   0.35416667  0.14583333  0.00000000       0.005
   0.37500000  0.14583333  0.00000000       0.005
   0.39583333  0.14583333  0.00000000       0.005
   0.41666667  0.14583333  0.00000000       0.005
   0.43750000  0.14583333  0.00000000       0.005
   0.45833333  0.14583333  0.00000000       0.005
   0.47916667  0.14583333  0.00000000       0.005
   0.50000000  0.14583333  0.00000000       0.005
  -0.47916667  0.14583333  0.00000000       0.005
  -0.45833333  0.14583333  0.00000000       0.005
  -0.43750000  0.14583333  0.00000000       0.005
   0.33333333  0.16666667  0.00000000       0.003
   0.35416667  0.16666667  0.00000000       0.005
   0.37500000  0.16666667  0.00000000       0.005
   0.39583333  0.16666667  0.00000000       0.005
   0.41666667  0.16666667  0.00000000       0.005
   0.43750000  0.16666667  0.00000000       0.005
   0.45833333  0.16666667  0.00000000       0.005
   0.47916667  0.16666667  0.00000000       0.005
   0.50000000  0.16666667  0.00000000       0.005
  -0.47916667  0.16666667  0.00000000       0.005
  -0.45833333  0.16666667  0.00000000       0.005
  -0.43750000  0.16666667  0.00000000       0.005
  -0.41666667  0.16666667  0.00000000       0.003
   0.37500000  0.18750000  0.00000000       0.003
   0.39583333  0.18750000  0.00000000       0.005
   0.41666667  0.18750000  0.00000000       0.005
   0.43750000  0.18750000  0.00000000       0.005
   0.45833333  0.18750000  0.00000000       0.005
   0.47916667  0.18750000  0.00000000       0.005
   0.50000000  0.18750000  0.00000000       0.005
  -0.47916667  0.18750000  0.00000000       0.005
  -0.45833333  0.18750000  0.00000000       0.005
  -0.43750000  0.18750000  0.00000000       0.005
  -0.41666667  0.18750000  0.00000000       0.005
   0.41666667  0.20833333  0.00000000       0.003
   0.43750000  0.20833333  0.00000000       0.005
   0.45833333  0.20833333  0.00000000       0.005
   0.47916667  0.20833333  0.00000000       0.005
   0.50000000  0.20833333  0.00000000       0.005
  -0.47916667  0.20833333  0.00000000       0.005
  -0.45833333  0.20833333  0.00000000       0.005
  -0.43750000  0.20833333  0.00000000       0.005
  -0.41666667  0.20833333  0.00000000       0.005
  -0.39583333  0.20833333  0.00000000       0.003
   0.45833333  0.22916667  0.00000000       0.003
   0.47916667  0.22916667  0.00000000       0.005
   0.50000000  0.22916667  0.00000000       0.005
  -0.47916667  0.22916667  0.00000000       0.005
  -0.45833333  0.22916667  0.00000000       0.005
  -0.43750000  0.22916667  0.00000000       0.005
  -0.41666667  0.22916667  0.00000000       0.005
  -0.39583333  0.22916667  0.00000000       0.005
   0.50000000  0.25000000  0.00000000       0.003
  -0.47916667  0.25000000  0.00000000       0.005
  -0.45833333  0.25000000  0.00000000       0.005
  -0.43750000  0.25000000  0.00000000       0.005
  -0.41666667  0.25000000  0.00000000       0.005
  -0.39583333  0.25000000  0.00000000       0.005
  -0.37500000  0.25000000  0.00000000       0.003
  -0.45833333  0.27083333  0.00000000       0.003
  -0.43750000  0.27083333  0.00000000       0.005
  -0.41666667  0.27083333  0.00000000       0.005
  -0.39583333  0.27083333  0.00000000       0.005
  -0.37500000  0.27083333  0.00000000       0.005
  -0.41666667  0.29166667  0.00000000       0.003
  -0.39583333  0.29166667  0.00000000       0.005
  -0.37500000  0.29166667  0.00000000       0.005
  -0.35416667  0.29166667  0.00000000       0.003
  -0.37500000  0.31250000  0.00000000       0.003
  -0.35416667  0.31250000  0.00000000       0.005
  -0.33333333  0.33333333  0.00000000       0.001
 
 position of ions in fractional coordinates (direct lattice) 
   0.00000000  0.00000000  0.00000000
   0.33333333  0.33333333  0.09601278
   0.66666667  0.66666667  0.18885499
   0.66666667  0.66666667  0.96698397
 
 position of ions in cartesian coordinates  (Angst):
   0.00000000  0.00000000  0.00000000
   1.44450000  0.83398246  2.44714648
   2.88900000  1.66796493  4.81348257
   2.88900000  1.66796493 24.64621399
 


--------------------------------------------------------------------------------------------------------


 k-point  1 :   0.0000 0.0000 0.0000  plane waves:    3383
 k-point  2 :   0.0208 0.0000 0.0000  plane waves:    3381
 k-point  3 :   0.0417 0.0000 0.0000  plane waves:    3373
 k-point  4 :   0.0625 0.0000 0.0000  plane waves:    3377
 k-point  5 :   0.0833 0.0000 0.0000  plane waves:    3358
 k-point  6 :   0.1042-0.0000 0.0000  plane waves:    3354
 k-point  7 :   0.1250 0.0000 0.0000  plane waves:    3354
 k-point  8 :   0.1458 0.0000 0.0000  plane waves:    3348
 k-point  9 :   0.1667 0.0000 0.0000  plane waves:    3348
 k-point 10 :   0.1875 0.0000 0.0000  plane waves:    3348
 k-point 11 :   0.2083 0.0000 0.0000  plane waves:    3332
 k-point 12 :   0.2292 0.0000 0.0000  plane waves:    3340
 k-point 13 :   0.2500 0.0000 0.0000  plane waves:    3330
 k-point 14 :   0.2708-0.0000 0.0000  plane waves:    3332
 k-point 15 :   0.2917 0.0000 0.0000  plane waves:    3328
 k-point 16 :   0.3125 0.0000 0.0000  plane waves:    3330
 k-point 17 :   0.3333 0.0000 0.0000  plane waves:    3352
 k-point 18 :   0.3542-0.0000 0.0000  plane waves:    3350
 k-point 19 :   0.3750 0.0000 0.0000  plane waves:    3360
 k-point 20 :   0.3958-0.0000 0.0000  plane waves:    3364
 k-point 21 :   0.4167 0.0000 0.0000  plane waves:    3374
 k-point 22 :   0.4375 0.0000 0.0000  plane waves:    3380
 k-point 23 :   0.4583 0.0000 0.0000  plane waves:    3376
 k-point 24 :   0.4792-0.0000 0.0000  plane waves:    3356
 k-point 25 :   0.5000 0.0000 0.0000  plane waves:    3348
 k-point 26 :   0.0417 0.0208 0.0000  plane waves:    3377
 k-point 27 :   0.0625 0.0208 0.0000  plane waves:    3377
 k-point 28 :   0.0833 0.0208 0.0000  plane waves:    3373
 k-point 29 :   0.1042 0.0208 0.0000  plane waves:    3366
 k-point 30 :   0.1250 0.0208 0.0000  plane waves:    3362
 k-point 31 :   0.1458 0.0208 0.0000  plane waves:    3349
 k-point 32 :   0.1667 0.0208 0.0000  plane waves:    3351
 k-point 33 :   0.1875 0.0208 0.0000  plane waves:    3351
 k-point 34 :   0.2083 0.0208 0.0000  plane waves:    3346
 k-point 35 :   0.2292 0.0208 0.0000  plane waves:    3338
 k-point 36 :   0.2500 0.0208 0.0000  plane waves:    3340
 k-point 37 :   0.2708 0.0208 0.0000  plane waves:    3334
 k-point 38 :   0.2917 0.0208 0.0000  plane waves:    3338
 k-point 39 :   0.3125 0.0208 0.0000  plane waves:    3337
 k-point 40 :   0.3333 0.0208 0.0000  plane waves:    3344
 k-point 41 :   0.3542 0.0208 0.0000  plane waves:    3345
 k-point 42 :   0.3750 0.0208 0.0000  plane waves:    3351
 k-point 43 :   0.3958 0.0208 0.0000  plane waves:    3360
 k-point 44 :   0.4167 0.0208 0.0000  plane waves:    3364
 k-point 45 :   0.4375 0.0208 0.0000  plane waves:    3366
 k-point 46 :   0.4583 0.0208 0.0000  plane waves:    3370
 k-point 47 :   0.4792 0.0208 0.0000  plane waves:    3364
 k-point 48 :   0.5000 0.0208 0.0000  plane waves:    3351
 k-point 49 :   0.0833 0.0417 0.0000  plane waves:    3377
 k-point 50 :   0.1042 0.0417 0.0000  plane waves:    3366
 k-point 51 :   0.1250 0.0417 0.0000  plane waves:    3365
 k-point 52 :   0.1458 0.0417 0.0000  plane waves:    3361
 k-point 53 :   0.1667 0.0417 0.0000  plane waves:    3351
 k-point 54 :   0.1875 0.0417 0.0000  plane waves:    3353
 k-point 55 :   0.2083 0.0417 0.0000  plane waves:    3347
 k-point 56 :   0.2292 0.0417 0.0000  plane waves:    3341
 k-point 57 :   0.2500 0.0417 0.0000  plane waves:    3338
 k-point 58 :   0.2708 0.0417 0.0000  plane waves:    3336
 k-point 59 :   0.2917 0.0417 0.0000  plane waves:    3336
 k-point 60 :   0.3125 0.0417 0.0000  plane waves:    3337
 k-point 61 :   0.3333 0.0417 0.0000  plane waves:    3343
 k-point 62 :   0.3542 0.0417 0.0000  plane waves:    3341
 k-point 63 :   0.3750 0.0417 0.0000  plane waves:    3361
 k-point 64 :   0.3958 0.0417 0.0000  plane waves:    3365
 k-point 65 :   0.4167 0.0417 0.0000  plane waves:    3360
 k-point 66 :   0.4375 0.0417 0.0000  plane waves:    3358
 k-point 67 :   0.4583 0.0417 0.0000  plane waves:    3362
 k-point 68 :   0.4792 0.0417 0.0000  plane waves:    3362
 k-point 69 :   0.5000 0.0417 0.0000  plane waves:    3351
 k-point 70 :  -0.4792 0.0417 0.0000  plane waves:    3342
 k-point 71 :   0.1250 0.0625 0.0000  plane waves:    3357
 k-point 72 :   0.1458 0.0625 0.0000  plane waves:    3355
 k-point 73 :   0.1667 0.0625 0.0000  plane waves:    3357
 k-point 74 :   0.1875 0.0625 0.0000  plane waves:    3355
 k-point 75 :   0.2083 0.0625 0.0000  plane waves:    3349
 k-point 76 :   0.2292 0.0625 0.0000  plane waves:    3351
 k-point 77 :   0.2500 0.0625 0.0000  plane waves:    3341
 k-point 78 :   0.2708 0.0625 0.0000  plane waves:    3339
 k-point 79 :   0.2917 0.0625 0.0000  plane waves:    3330
 k-point 80 :   0.3125 0.0625 0.0000  plane waves:    3329
 k-point 81 :   0.3333 0.0625 0.0000  plane waves:    3339
 k-point 82 :   0.3542 0.0625 0.0000  plane waves:    3342
 k-point 83 :   0.3750 0.0625 0.0000  plane waves:    3349
 k-point 84 :   0.3958 0.0625 0.0000  plane waves:    3357
 k-point 85 :   0.4167 0.0625 0.0000  plane waves:    3361
 k-point 86 :   0.4375 0.0625 0.0000  plane waves:    3364
 k-point 87 :   0.4583 0.0625 0.0000  plane waves:    3362
 k-point 88 :   0.4792 0.0625 0.0000  plane waves:    3360
 k-point 89 :   0.5000 0.0625 0.0000  plane waves:    3356
 k-point 90 :  -0.4792 0.0625 0.0000  plane waves:    3351
 k-point 91 :   0.1667 0.0833 0.0000  plane waves:    3359
 k-point 92 :   0.1875 0.0833 0.0000  plane waves:    3363
 k-point 93 :   0.2083 0.0833 0.0000  plane waves:    3355
 k-point 94 :   0.2292 0.0833 0.0000  plane waves:    3349
 k-point 95 :   0.2500 0.0833 0.0000  plane waves:    3355
 k-point 96 :   0.2708 0.0833 0.0000  plane waves:    3345
 k-point 97 :   0.2917 0.0833 0.0000  plane waves:    3343
 k-point 98 :   0.3125 0.0833 0.0000  plane waves:    3326
 k-point 99 :   0.3333 0.0833 0.0000  plane waves:    3339
 k-point ** :   0.3542 0.0833 0.0000  plane waves:    3342
 k-point ** :   0.3750 0.0833 0.0000  plane waves:    3340
 k-point ** :   0.3958 0.0833 0.0000  plane waves:    3355
 k-point ** :   0.4167 0.0833 0.0000  plane waves:    3361
 k-point ** :   0.4375 0.0833 0.0000  plane waves:    3359
 k-point ** :   0.4583 0.0833 0.0000  plane waves:    3354
 k-point ** :   0.4792 0.0833 0.0000  plane waves:    3354
 k-point ** :   0.5000 0.0833 0.0000  plane waves:    3354
 k-point ** :  -0.4792 0.0833 0.0000  plane waves:    3349
 k-point ** :  -0.4583 0.0833 0.0000  plane waves:    3348
 k-point ** :   0.2083 0.1042 0.0000  plane waves:    3365
 k-point ** :   0.2292 0.1042 0.0000  plane waves:    3365
 k-point ** :   0.2500 0.1042 0.0000  plane waves:    3351
 k-point ** :   0.2708 0.1042 0.0000  plane waves:    3349
 k-point ** :   0.2917 0.1042 0.0000  plane waves:    3349
 k-point ** :   0.3125 0.1042 0.0000  plane waves:    3337
 k-point ** :   0.3333 0.1042 0.0000  plane waves:    3346
 k-point ** :   0.3542 0.1042 0.0000  plane waves:    3340
 k-point ** :   0.3750 0.1042 0.0000  plane waves:    3352
 k-point ** :   0.3958 0.1042 0.0000  plane waves:    3348
 k-point ** :   0.4167 0.1042 0.0000  plane waves:    3355
 k-point ** :   0.4375 0.1042 0.0000  plane waves:    3359
 k-point ** :   0.4583 0.1042 0.0000  plane waves:    3357
 k-point ** :   0.4792 0.1042 0.0000  plane waves:    3351
 k-point ** :   0.5000 0.1042 0.0000  plane waves:    3352
 k-point ** :  -0.4792 0.1042 0.0000  plane waves:    3339
 k-point ** :  -0.4583 0.1042 0.0000  plane waves:    3335
 k-point ** :   0.2500 0.1250 0.0000  plane waves:    3361
 k-point ** :   0.2708 0.1250 0.0000  plane waves:    3353
 k-point ** :   0.2917 0.1250 0.0000  plane waves:    3347
 k-point ** :   0.3125 0.1250 0.0000  plane waves:    3345
 k-point ** :   0.3333 0.1250 0.0000  plane waves:    3343
 k-point ** :   0.3542 0.1250 0.0000  plane waves:    3351
 k-point ** :   0.3750 0.1250 0.0000  plane waves:    3345
 k-point ** :   0.3958 0.1250 0.0000  plane waves:    3338
 k-point ** :   0.4167 0.1250 0.0000  plane waves:    3342
 k-point ** :   0.4375 0.1250 0.0000  plane waves:    3353
 k-point ** :   0.4583 0.1250 0.0000  plane waves:    3351
 k-point ** :   0.4792 0.1250 0.0000  plane waves:    3353
 k-point ** :   0.5000 0.1250 0.0000  plane waves:    3349
 k-point ** :  -0.4792 0.1250 0.0000  plane waves:    3342
 k-point ** :  -0.4583 0.1250 0.0000  plane waves:    3335
 k-point ** :  -0.4375 0.1250 0.0000  plane waves:    3344
 k-point ** :   0.2917 0.1458 0.0000  plane waves:    3349
 k-point ** :   0.3125 0.1458 0.0000  plane waves:    3347
 k-point ** :   0.3333 0.1458 0.0000  plane waves:    3345
 k-point ** :   0.3542 0.1458 0.0000  plane waves:    3355
 k-point ** :   0.3750 0.1458 0.0000  plane waves:    3357
 k-point ** :   0.3958 0.1458 0.0000  plane waves:    3353
 k-point ** :   0.4167 0.1458 0.0000  plane waves:    3343
 k-point ** :   0.4375 0.1458 0.0000  plane waves:    3346
 k-point ** :   0.4583 0.1458 0.0000  plane waves:    3355
 k-point ** :   0.4792 0.1458 0.0000  plane waves:    3349
 k-point ** :   0.5000 0.1458 0.0000  plane waves:    3345
 k-point ** :  -0.4792 0.1458 0.0000  plane waves:    3339
 k-point ** :  -0.4583 0.1458 0.0000  plane waves:    3331
 k-point ** :  -0.4375 0.1458 0.0000  plane waves:    3342
 k-point ** :   0.3333 0.1667 0.0000  plane waves:    3355
 k-point ** :   0.3542 0.1667 0.0000  plane waves:    3357
 k-point ** :   0.3750 0.1667 0.0000  plane waves:    3363
 k-point ** :   0.3958 0.1667 0.0000  plane waves:    3359
 k-point ** :   0.4167 0.1667 0.0000  plane waves:    3359
 k-point ** :   0.4375 0.1667 0.0000  plane waves:    3353
 k-point ** :   0.4583 0.1667 0.0000  plane waves:    3344
 k-point ** :   0.4792 0.1667 0.0000  plane waves:    3345
 k-point ** :   0.5000 0.1667 0.0000  plane waves:    3341
 k-point ** :  -0.4792 0.1667 0.0000  plane waves:    3345
 k-point ** :  -0.4583 0.1667 0.0000  plane waves:    3324
 k-point ** :  -0.4375 0.1667 0.0000  plane waves:    3321
 k-point ** :  -0.4167 0.1667 0.0000  plane waves:    3328
 k-point ** :   0.3750 0.1875 0.0000  plane waves:    3361
 k-point ** :   0.3958 0.1875 0.0000  plane waves:    3363
 k-point ** :   0.4167 0.1875 0.0000  plane waves:    3367
 k-point ** :   0.4375 0.1875 0.0000  plane waves:    3357
 k-point ** :   0.4583 0.1875 0.0000  plane waves:    3355
 k-point ** :   0.4792 0.1875 0.0000  plane waves:    3341
 k-point ** :   0.5000 0.1875 0.0000  plane waves:    3343
 k-point ** :  -0.4792 0.1875 0.0000  plane waves:    3343
 k-point ** :  -0.4583 0.1875 0.0000  plane waves:    3331
 k-point ** :  -0.4375 0.1875 0.0000  plane waves:    3318
 k-point ** :  -0.4167 0.1875 0.0000  plane waves:    3323
 k-point ** :   0.4167 0.2083 0.0000  plane waves:    3367
 k-point ** :   0.4375 0.2083 0.0000  plane waves:    3357
 k-point ** :   0.4583 0.2083 0.0000  plane waves:    3351
 k-point ** :   0.4792 0.2083 0.0000  plane waves:    3347
 k-point ** :   0.5000 0.2083 0.0000  plane waves:    3343
 k-point ** :  -0.4792 0.2083 0.0000  plane waves:    3344
 k-point ** :  -0.4583 0.2083 0.0000  plane waves:    3337
 k-point ** :  -0.4375 0.2083 0.0000  plane waves:    3328
 k-point ** :  -0.4167 0.2083 0.0000  plane waves:    3317
 k-point ** :  -0.3958 0.2083 0.0000  plane waves:    3318
 k-point ** :   0.4583 0.2292 0.0000  plane waves:    3355
 k-point ** :   0.4792 0.2292 0.0000  plane waves:    3347
 k-point ** :   0.5000 0.2292 0.0000  plane waves:    3349
 k-point ** :  -0.4792 0.2292 0.0000  plane waves:    3340
 k-point ** :  -0.4583 0.2292 0.0000  plane waves:    3342
 k-point ** :  -0.4375 0.2292 0.0000  plane waves:    3324
 k-point ** :  -0.4167 0.2292 0.0000  plane waves:    3314
 k-point ** :  -0.3958 0.2292 0.0000  plane waves:    3320
 k-point ** :   0.5000 0.2500 0.0000  plane waves:    3341
 k-point ** :  -0.4792 0.2500 0.0000  plane waves:    3341
 k-point ** :  -0.4583 0.2500 0.0000  plane waves:    3330
 k-point ** :  -0.4375 0.2500 0.0000  plane waves:    3331
 k-point ** :  -0.4167 0.2500 0.0000  plane waves:    3318
 k-point ** :  -0.3958 0.2500 0.0000  plane waves:    3318
 k-point ** :  -0.3750 0.2500 0.0000  plane waves:    3316
 k-point ** :  -0.4583 0.2708 0.0000  plane waves:    3331
 k-point ** :  -0.4375 0.2708 0.0000  plane waves:    3320
 k-point ** :  -0.4167 0.2708 0.0000  plane waves:    3314
 k-point ** :  -0.3958 0.2708 0.0000  plane waves:    3316
 k-point ** :  -0.3750 0.2708 0.0000  plane waves:    3315
 k-point ** :  -0.4167 0.2917 0.0000  plane waves:    3319
 k-point ** :  -0.3958 0.2917 0.0000  plane waves:    3317
 k-point ** :  -0.3750 0.2917 0.0000  plane waves:    3318
 k-point ** :  -0.3542 0.2917 0.0000  plane waves:    3315
 k-point ** :  -0.3750 0.3125 0.0000  plane waves:    3325
 k-point ** :  -0.3542 0.3125 0.0000  plane waves:    3323
 k-point ** :  -0.3333 0.3333 0.0000  plane waves:    3327

 maximum and minimum number of plane-waves per node :      1702     1647

 maximum number of plane-waves:      3383
 maximum index in each direction: 
   IXMAX=    5   IYMAX=    4   IZMAX=   41
   IXMIN=   -5   IYMIN=   -5   IZMIN=  -41


 parallel 3D FFT for wavefunctions:
    minimum data exchange during FFTs selected (reduces bandwidth)
 parallel 3D FFT for charge:
    minimum data exchange during FFTs selected (reduces bandwidth)


 total amount of memory used by VASP MPI-rank0   167892. kBytes
=======================================================================

   base      :      30000. kBytes
   nonl-proj :     106602. kBytes
   fftplans  :       2724. kBytes
   grid      :       4370. kBytes
   one-center:         31. kBytes
   wavefun   :      24165. kBytes
 
     INWAV:  cpu time    0.0000: real time    0.0000
 initial charge density was supplied:
 number of electron      34.0000005 magnetization 
 keeping initial charge density in first step


--------------------------------------------------------------------------------------------------------


 Maximum index for augmentation-charges         1962 (set IRDMAX)


--------------------------------------------------------------------------------------------------------


 First call to EWALD:  gamma=   0.311
 Maximum number of real-space cells 6x 6x 1
 Maximum number of reciprocal cells 2x 2x11

    FEWALD:  cpu time    0.0011: real time    0.0011


--------------------------------------- Iteration      1(   1)  ---------------------------------------


    POTLOK:  cpu time    0.0204: real time    0.0214
    SETDIJ:  cpu time    0.0023: real time    0.0023
     EDDAV:  cpu time    4.3893: real time    4.3956
 BZINTS: Fermi energy:  6.202833; 34.000000 electrons
         Band energy:  -5.269928;  BLOECHL correction: -0.148139
       DOS:  cpu time    0.0452: real time    0.0456
    --------------------------------------------
      LOOP:  cpu time    4.4572: real time    4.4648

 eigenvalue-minimisations  : 10500
 total energy-change (2. order) : 0.1629977E+03  (-0.1317197E+04)
 number of electron      34.0000005 magnetization 
 augmentation part       34.0000005 magnetization 

 Free energy of the ion-electron system (eV)
  ---------------------------------------------------
  alpha Z        PSCENC =        43.26155341
  Ewald energy   TEWEN  =     13258.89322997
  -Hartree energ DENC   =    -16358.16000792
  -exchange      EXHF   =         0.00000000
  -V(xc)+E(xc)   XCENC  =       -30.31979117
  PAW double counting   =      3371.48766536    -3241.14890322
  entropy T*S    EENTRO =         0.00000000
  eigenvalues    EBANDS =        -5.26992753
  atomic energy  EATOM  =      3124.25391779
  Solvation  Ediel_sol  =         0.00000000
  ---------------------------------------------------
  free energy    TOTEN  =       162.99773669 eV

  energy without entropy =      162.99773669  energy(sigma->0) =      162.99773669


--------------------------------------------------------------------------------------------------------




--------------------------------------- Iteration      1(   2)  ---------------------------------------


     EDDAV:  cpu time    4.8370: real time    4.8383
 BZINTS: Fermi energy: -0.735683; 34.000000 electrons
         Band energy:-175.822794;  BLOECHL correction: -0.007622
       DOS:  cpu time    0.0392: real time    0.0392
    --------------------------------------------
      LOOP:  cpu time    4.8762: real time    4.8775

 eigenvalue-minimisations  : 11952
 total energy-change (2. order) :-0.1705529E+03  (-0.1676852E+03)
 number of electron      34.0000005 magnetization 
 augmentation part       34.0000005 magnetization 

 Free energy of the ion-electron system (eV)
  ---------------------------------------------------
  alpha Z        PSCENC =        43.26155341
  Ewald energy   TEWEN  =     13258.89322997
  -Hartree energ DENC   =    -16358.16000792
  -exchange      EXHF   =         0.00000000
  -V(xc)+E(xc)   XCENC  =       -30.31979117
  PAW double counting   =      3371.48766536    -3241.14890322
  entropy T*S    EENTRO =         0.00000000
  eigenvalues    EBANDS =      -175.82279352
  atomic energy  EATOM  =      3124.25391779
  Solvation  Ediel_sol  =         0.00000000
  ---------------------------------------------------
[...]
     15      -3.9594      2.00000
     16      -0.8006      0.44899
     17       1.1172      0.00000
     18       2.6721      0.00000
     19       3.3571      0.00000
     20       4.1767      0.00000
     21       4.6399      0.00000
     22       5.3863      0.00000
     23       6.3660      0.00000
     24       7.2081      0.00000

 k-point   209 :      -0.3958    0.2708    0.0000
  band No.  band energies     occupation 
      1      -7.8042      2.00000
      2      -6.5178      2.00000
      3      -6.3718      2.00000
      4      -6.2531      2.00000
      5      -6.1605      2.00000
      6      -5.7969      2.00000
      7      -5.6871      2.00000
      8      -5.6368      2.00000
      9      -5.3123      2.00000
     10      -5.0423      2.00000
     11      -4.9559      2.00000
     12      -4.6563      2.00000
     13      -4.3982      2.00000
     14      -4.1640      2.00000
     15      -4.0026      2.00000
     16      -0.5749      0.00000
     17       1.5313      0.00000
     18       2.6835      0.00000
     19       3.0943      0.00000
     20       4.1206      0.00000
     21       4.6107      0.00000
     22       5.2985      0.00000
     23       6.0749      0.00000
     24       7.4255      0.00000

 k-point   210 :      -0.3750    0.2708    0.0000
  band No.  band energies     occupation 
      1      -7.8008      2.00000
      2      -6.5139      2.00000
      3      -6.3621      2.00000
      4      -6.2666      2.00000
      5      -6.1580      2.00000
      6      -5.7860      2.00000
      7      -5.6846      2.00000
      8      -5.6442      2.00000
      9      -5.3193      2.00000
     10      -5.0242      2.00000
     11      -4.9660      2.00000
     12      -4.6450      2.00000
     13      -4.3962      2.00000
     14      -4.1500      2.00000
     15      -4.0354      2.00000
     16      -0.4475      0.00000
     17       1.8596      0.00000
     18       2.5457      0.00000
     19       2.9587      0.00000
     20       4.0221      0.00000
     21       4.8087      0.00000
     22       5.1742      0.00000
     23       5.8480      0.00000
     24       7.6525      0.00000

 k-point   211 :      -0.4167    0.2917    0.0000
  band No.  band energies     occupation 
      1      -7.8026      2.00000
      2      -6.5097      2.00000
      3      -6.3899      2.00000
      4      -6.2290      2.00000
      5      -6.1465      2.00000
      6      -5.8292      2.00000
      7      -5.6868      2.00000
      8      -5.6345      2.00000
      9      -5.2874      2.00000
     10      -5.0841      2.00000
     11      -4.9562      2.00000
     12      -4.6951      2.00000
     13      -4.4077      2.00000
     14      -4.1744      2.00000
     15      -3.9590      2.00000
     16      -0.7843      0.36609
     17       1.1218      0.00000
     18       2.7174      0.00000
     19       3.6159      0.00000
     20       3.9025      0.00000
     21       4.8119      0.00000
     22       5.1560      0.00000
     23       6.5008      0.00000
     24       7.1831      0.00000

 k-point   212 :      -0.3958    0.2917    0.0000
  band No.  band energies     occupation 
      1      -7.7884      2.00000
      2      -6.4856      2.00000
      3      -6.3874      2.00000
      4      -6.2490      2.00000
      5      -6.1157      2.00000
      6      -5.8269      2.00000
      7      -5.6874      2.00000
      8      -5.6445      2.00000
      9      -5.2880      2.00000
     10      -5.0835      2.00000
     11      -4.9619      2.00000
     12      -4.6927      2.00000
     13      -4.4051      2.00000
     14      -4.1704      2.00000
     15      -4.0034      2.00000
     16      -0.5290      0.00000
     17       1.5512      0.00000
     18       2.8376      0.00000
     19       3.3629      0.00000
     20       3.8386      0.00000
     21       4.6963      0.00000
     22       5.0110      0.00000
     23       6.2970      0.00000
     24       7.2641      0.00000

 k-point   213 :      -0.3750    0.2917    0.0000
  band No.  band energies     occupation 
      1      -7.7798      2.00000
      2      -6.4692      2.00000
      3      -6.3812      2.00000
      4      -6.2722      2.00000
      5      -6.0923      2.00000
      6      -5.8193      2.00000
      7      -5.6993      2.00000
      8      -5.6463      2.00000
      9      -5.2884      2.00000
     10      -5.0790      2.00000
     11      -4.9687      2.00000
     12      -4.6877      2.00000
     13      -4.4044      2.00000
     14      -4.1573      2.00000
     15      -4.0434      2.00000
     16      -0.3536      0.00000
     17       1.9413      0.00000
     18       2.7923      0.00000
     19       3.1755      0.00000
     20       3.7416      0.00000
     21       4.6539      0.00000
     22       5.0653      0.00000
     23       5.9909      0.00000
     24       7.2534      0.00000

 k-point   214 :      -0.3542    0.2917    0.0000
  band No.  band energies     occupation 
      1      -7.7768      2.00000
      2      -6.4637      2.00000
      3      -6.3767      2.00000
      4      -6.2830      2.00000
      5      -6.0839      2.00000
      6      -5.8148      2.00000
      7      -5.7059      2.00000
      8      -5.6464      2.00000
      9      -5.2886      2.00000
     10      -5.0762      2.00000
     11      -4.9722      2.00000
     12      -4.6852      2.00000
     13      -4.4044      2.00000
     14      -4.1474      2.00000
     15      -4.0628      2.00000
     16      -0.2903      0.00000
     17       2.1598      0.00000
     18       2.6551      0.00000
     19       3.1629      0.00000
     20       3.6648      0.00000
     21       4.6516      0.00000
     22       5.1586      0.00000
     23       5.8155      0.00000
     24       7.2357      0.00000

 k-point   215 :      -0.3750    0.3125    0.0000
  band No.  band energies     occupation 
      1      -7.7726      2.00000
      2      -6.4478      2.00000
      3      -6.3914      2.00000
      4      -6.2798      2.00000
      5      -6.0565      2.00000
      6      -5.8453      2.00000
      7      -5.7054      2.00000
      8      -5.6414      2.00000
      9      -5.2684      2.00000
     10      -5.1125      2.00000
     11      -4.9613      2.00000
     12      -4.7052      2.00000
     13      -4.4072      2.00000
     14      -4.1600      2.00000
     15      -4.0459      2.00000
     16      -0.3222      0.00000
     17       1.9638      0.00000
     18       2.9612      0.00000
     19       3.2033      0.00000
     20       3.6521      0.00000
     21       4.5264      0.00000
     22       5.0440      0.00000
     23       6.1117      0.00000
     24       7.0659      0.00000

 k-point   216 :      -0.3542    0.3125    0.0000
  band No.  band energies     occupation 
      1      -7.7643      2.00000
      2      -6.4226      2.00000
      3      -6.3892      2.00000
      4      -6.3079      2.00000
      5      -6.0125      2.00000
      6      -5.8652      2.00000
      7      -5.7197      2.00000
      8      -5.6368      2.00000
      9      -5.2494      2.00000
     10      -5.1374      2.00000
     11      -4.9580      2.00000
     12      -4.7112      2.00000
     13      -4.4089      2.00000
     14      -4.1446      2.00000
     15      -4.0785      2.00000
     16      -0.2086      0.00000
     17       2.3170      0.00000
     18       2.8203      0.00000
     19       3.2163      0.00000
     20       3.5235      0.00000
     21       4.3373      0.00000
     22       5.2911      0.00000
     23       5.8610      0.00000
     24       6.9406      0.00000

 k-point   217 :      -0.3333    0.3333    0.0000
  band No.  band energies     occupation 
      1      -7.7591      2.00000
      2      -6.3935      2.00000
      3      -6.3933      2.00000
      4      -6.3329      2.00000
      5      -5.9435      2.00000
      6      -5.9237      2.00000
      7      -5.7259      2.00000
      8      -5.6327      2.00000
      9      -5.2001      2.00000
     10      -5.1942      2.00000
     11      -4.9515      2.00000
     12      -4.7203      2.00000
     13      -4.4106      2.00000
     14      -4.1341      2.00000
     15      -4.0969      2.00000
     16      -0.1578      0.00000
     17       2.6078      0.00000
     18       2.6713      0.00000
     19       3.1887      0.00000
     20       3.5436      0.00000
     21       4.1489      0.00000
     22       5.5029      0.00000
     23       5.7167      0.00000
     24       6.8177      0.00000


--------------------------------------------------------------------------------------------------------


 soft charge-density along one line, spin component           1
         0         1         2         3         4         5         6         7         8         9
 total charge-density along one line
 
 pseudopotential strength for first ion, spin component:           1
 -9.298  -0.000   0.000  -0.003  -0.000  -9.313  -0.000   0.000
 -0.000  -9.289  -0.000  -0.000  -0.003  -0.000  -9.304  -0.000
  0.000  -0.000  -9.286  -0.000   0.000   0.000  -0.000  -9.302
 -0.003  -0.000  -0.000  -9.289  -0.000  -0.003  -0.000  -0.000
 -0.000  -0.003   0.000  -0.000  -9.298  -0.000  -0.003   0.000
 -9.313  -0.000   0.000  -0.003  -0.000  -9.302  -0.000   0.000
 -0.000  -9.304  -0.000  -0.000  -0.003  -0.000  -9.294  -0.000
  0.000  -0.000  -9.302  -0.000   0.000   0.000  -0.000  -9.291
 -0.003  -0.000  -0.000  -9.304  -0.000  -0.002  -0.000  -0.000
 -0.000  -0.003   0.000  -0.000  -9.313  -0.000  -0.002   0.000
  0.000   0.000  -0.007   0.000   0.000   0.000   0.000  -0.007
  0.000   0.000  -0.012   0.000   0.000   0.000   0.000  -0.012
 -0.000   0.009   0.000  -0.000  -0.002  -0.000   0.009   0.000
 -0.000  -0.000   0.014  -0.000  -0.000  -0.000  -0.000   0.013
 -0.002  -0.000   0.000   0.009  -0.000  -0.002  -0.000   0.000
 -0.000   0.012   0.000  -0.000  -0.002  -0.000   0.011   0.000
 -0.000  -0.000   0.017  -0.000  -0.000  -0.000  -0.000   0.016
 -0.002  -0.000   0.000   0.012  -0.000  -0.002  -0.000   0.000
 total augmentation occupancy for first ion, spin component:           1
  2.000   0.000   0.000   0.000   0.000   0.000   0.000   0.000   0.000   0.000   0.000   0.000   0.000   0.000   0.000   0.000
  0.000   2.000   0.000   0.000   0.000   0.000   0.000   0.000   0.000   0.000   0.000   0.000   0.000   0.000   0.000   0.000
  0.000   0.000   2.000   0.000   0.000   0.000   0.000   0.000   0.000   0.000   0.000   0.000   0.000   0.000   0.000   0.000
  0.000   0.000   0.000   2.000   0.000   0.000   0.000   0.000   0.000   0.000   0.000   0.000   0.000   0.000   0.000   0.000
  0.000   0.000   0.000   0.000   2.000   0.000   0.000   0.000   0.000   0.000   0.000   0.000   0.000   0.000   0.000   0.000
  0.000   0.000   0.000   0.000   0.000   0.000   0.000   0.000   0.000   0.000   0.000   0.000   0.000   0.000   0.000   0.000
  0.000   0.000   0.000   0.000   0.000   0.000   0.000   0.000   0.000   0.000   0.000   0.000   0.000   0.000   0.000   0.000
  0.000   0.000   0.000   0.000   0.000   0.000   0.000   0.000   0.000   0.000   0.000   0.000   0.000   0.000   0.000   0.000
  0.000   0.000   0.000   0.000   0.000   0.000   0.000   0.000   0.000   0.000   0.000   0.000   0.000   0.000   0.000   0.000
  0.000   0.000   0.000   0.000   0.000   0.000   0.000   0.000   0.000   0.000   0.000   0.000   0.000   0.000   0.000   0.000
  0.000   0.000   0.000   0.000   0.000   0.000   0.000   0.000   0.000   0.000   1.000   0.000   0.000   0.000   0.000   0.000
  0.000   0.000   0.000   0.000   0.000   0.000   0.000   0.000   0.000   0.000   0.000   0.000   0.000   0.000   0.000   0.000
  0.000   0.000   0.000   0.000   0.000   0.000   0.000   0.000   0.000   0.000   0.000   0.000   0.000   0.000   0.000   0.000
  0.000   0.000   0.000   0.000   0.000   0.000   0.000   0.000   0.000   0.000   0.000   0.000   0.000   0.000   0.000   0.000
  0.000   0.000   0.000   0.000   0.000   0.000   0.000   0.000   0.000   0.000   0.000   0.000   0.000   0.000   0.000   0.000
  0.000   0.000   0.000   0.000   0.000   0.000   0.000   0.000   0.000   0.000   0.000   0.000   0.000   0.000   0.000   0.000
  0.000   0.000   0.000   0.000   0.000   0.000   0.000   0.000   0.000   0.000   0.000   0.000   0.000   0.000   0.000   0.000
  0.000   0.000   0.000   0.000   0.000   0.000   0.000   0.000   0.000   0.000   0.000   0.000   0.000   0.000   0.000   0.000


------------------------ aborting loop because EDIFF is reached ----------------------------------------


 


 total charge     
 
# of ion       s       p       d       tot
------------------------------------------
    1        0.400   0.405   9.135   9.940
    2        0.421   0.276   9.170   9.866
    3        0.428   0.221   9.177   9.826
    4        0.501   0.017   0.000   0.518
--------------------------------------------------
tot          1.750   0.919  27.482  30.150
 
    CHARGE:  cpu time    0.1985: real time    0.1986
    FORLOC:  cpu time    0.0013: real time    0.0013
    FORNL :  cpu time    0.3229: real time    0.3229
    STRESS:  cpu time    1.3044: real time    1.3048
    FORCOR:  cpu time    0.0161: real time    0.0161
    FORHAR:  cpu time    0.0046: real time    0.0049
    OFIELD:  cpu time    0.0001: real time    0.0001

 ---------------------------------------------------------------------------------------------

         DFTD3 V3.0 Rev 1        
 IVDW         = 11
 DF pbe       
 parameters
 VDW_S6       =    1.0000
 VDW_S8       =    0.7220
 VDW_SR       =    1.2170
 rs18     =    1.0000
 alpha6   =   14.0000
 alpha8   =   16.0000
 k1-k3    =   16.0000    1.3333   -4.0000
 VDW_RADIUS   =   50.2022 A
 VDW_CNRADIUS =   21.1671 A
 Edisp (eV)   -1.02183

 E6    (eV) :    -0.4267
 E8    (eV) :    -0.5952
 % E8        : 58.24
    FORVDW:  cpu time    0.0224: real time    0.0468

  FORCE on cell =-STRESS in cart. coord.  units (eV):
  Direction    XX          YY          ZZ          XY          YZ          ZX
  --------------------------------------------------------------------------------------
  Alpha Z    43.26155    43.26155    43.26155
  Ewald   15223.46402 15223.46402-17188.03474    -0.00000     0.00000     0.00000
  Hartree 15975.54920 15975.54920-15592.91550     0.00000    -0.00000    -0.00000
  E(xc)    -176.95358  -176.95358  -177.77777     0.00000    -0.00000    -0.00000
  Local  -31730.72797-31730.72792 32243.31402    -0.00005     0.00000     0.00000
  n-local   -28.50265   -22.25800   -26.29164     3.96016     0.81839    -0.04281
  augment   275.74510   275.74505   277.53186     0.00004     0.00000     0.00000
  Kinetic   421.45390   410.95406   421.38722    -2.69146    -1.31561     1.16759
  Fock        0.00000     0.00000     0.00000     0.00000     0.00000     0.00000
  vdW        -1.20582    -1.20582    -0.61339    -0.00000    -0.00000    -0.00000
  -------------------------------------------------------------------------------------
  Total      -0.04384    -0.04384    -0.13839     0.00000     0.00000     0.00000
  in kB      -0.38126    -0.38126    -1.20357     0.00000     0.00000     0.00000
  external pressure =       -0.66 kB  Pullay stress =        0.00 kB


 VOLUME and BASIS-vectors are now :
 -----------------------------------------------------------------------------
  energy-cutoff  :      400.00
  volume of cell :      184.23
      direct lattice vectors                 reciprocal lattice vectors
     2.889000000  0.000000000  0.000000000     0.346140533 -0.199844330  0.000000000
     1.444500000  2.501947392  0.000000000     0.000000000  0.399688660  0.000000000
     0.000000000  0.000000000 25.487717245     0.000000000  0.000000000  0.039234585

  length of vectors
     2.889000000  2.889000000 25.487717245     0.399688660  0.399688660  0.039234585


 FORCES acting on ions
    electron-ion (+dipol)            ewald-force                    non-local-force                 convergence-correction
 -----------------------------------------------------------------------------------------------
   -.659E-07 -.380E-07 0.206E+04   -.940E-12 -.587E-12 -.206E+04   -.417E-16 -.535E-16 0.119E+01   0.102E-04 0.590E-05 -.894E-01
   -.121E-06 -.696E-07 -.948E+02   -.168E-11 -.982E-12 0.946E+02   0.110E-18 0.491E-18 0.404E+00   0.150E-02 0.864E-03 -.151E+00
   0.182E-06 0.105E-06 -.224E+04   0.124E-11 0.694E-12 0.224E+04   -.620E-17 -.115E-17 0.163E+01   -.150E-02 -.864E-03 -.428E-01
   -.176E-07 -.101E-07 0.270E+03   0.150E-11 0.876E-12 -.271E+03   0.153E-17 0.293E-18 0.109E+01   -.554E-05 -.320E-05 -.214E-02
 -----------------------------------------------------------------------------------------------
   -.224E-07 -.129E-07 -.403E+01   0.121E-12 0.106E-14 -.171E-12   -.462E-16 -.539E-16 0.431E+01   0.559E-05 0.323E-05 -.286E+00
 
 
 POSITION                                       TOTAL-FORCE (eV/Angst)
 -----------------------------------------------------------------------------------
      0.00000      0.00000      0.00000         0.000000      0.000000      0.002870
      1.44450      0.83398      2.44715         0.000000     -0.000000     -0.025294
      2.88900      1.66796      4.81348        -0.000000     -0.000000      0.026690
      2.88900      1.66796     24.64621         0.000000      0.000000     -0.004267
 -----------------------------------------------------------------------------------
    total drift:                                0.000006      0.000003      0.000678


--------------------------------------------------------------------------------------------------------



  FREE ENERGIE OF THE ION-ELECTRON SYSTEM (eV)
  ---------------------------------------------------
  free  energy   TOTEN  =       -11.63438059 eV

  energy  without entropy=      -11.63438059  energy(sigma->0) =      -11.63438059
 


--------------------------------------------------------------------------------------------------------


    POTLOK:  cpu time    0.0192: real time    0.0193


--------------------------------------------------------------------------------------------------------


 stress matrix after NEB project (eV)
     -0.04384      0.00000      0.00000
      0.00000     -0.04384      0.00000
      0.00000      0.00000     -0.13839
  FORCES: max atom, RMS     0.026690    0.018509
  FORCE total and by dimension    0.037018    0.026690
  Stress total and by dimension    0.151647    0.138394
     LOOP+:  cpu time   38.4225: real time   38.6481
    4ORBIT:  cpu time    0.0000: real time    0.0000
 


 total charge     
 
# of ion       s       p       d       tot
------------------------------------------
    1        0.400   0.405   9.135   9.940
    2        0.421   0.276   9.170   9.866
    3        0.428   0.221   9.177   9.826
    4        0.501   0.017   0.000   0.518
--------------------------------------------------
tot          1.750   0.919  27.482  30.150
 
 BZINTS: Fermi energy: -0.866136; 34.000000 electrons
         Band energy:-178.880215;  BLOECHL correction: -0.006762

 total amount of memory used by VASP MPI-rank0   167892. kBytes
=======================================================================

   base      :      30000. kBytes
   nonl-proj :     106602. kBytes
   fftplans  :       2724. kBytes
   grid      :       4370. kBytes
   one-center:         31. kBytes
   wavefun   :      24165. kBytes
 
  
  
 General timing and accounting informations for this job:
 ========================================================
  
                  Total CPU time used (sec):       41.941
                            User time (sec):       41.364
                          System time (sec):        0.577
                         Elapsed time (sec):       42.874
  
                   Maximum memory used (kb):      222640.
                   Average memory used (kb):           0.
  
                          Minor page faults:        55346
                          Major page faults:           34
                 Voluntary context switches:         3045
