PROCAR lm decomposed
# of k-points:  217         # of bands:   24         # of ions:    4

 k-point     1 :    0.00000000 0.00000000 0.00000000     weight = 0.00043403

band     1 # energy   -9.32262624 # occ.  2.00000000
 
ion      s     py     pz     px    dxy    dyz    dz2    dxz  x2-y2    tot
    1  0.340  0.000  0.003  0.000  0.000  0.000  0.108  0.000  0.000  0.452
    2  0.034  0.000  0.003  0.000  0.000  0.000  0.002  0.000  0.000  0.039
    3  0.003  0.000  0.001  0.000  0.000  0.000  0.000  0.000  0.000  0.004
    4  0.136  0.000  0.001  0.000  0.000  0.000  0.000  0.000  0.000  0.138
tot    0.514  0.000  0.008  0.000  0.000  0.000  0.110  0.000  0.000  0.632
 
band     2 # energy   -7.76324094 # occ.  2.00000000
 
ion      s     py     pz     px    dxy    dyz    dz2    dxz  x2-y2    tot
    1  0.001  0.000  0.011  0.000  0.000  0.000  0.096  0.000  0.000  0.108
    2  0.285  0.000  0.003  0.000  0.000  0.000  0.068  0.000  0.000  0.356
    3  0.136  0.000  0.009  0.000  0.000  0.000  0.002  0.000  0.000  0.147
    4  0.009  0.000  0.000  0.000  0.000  0.000  0.000  0.000  0.000  0.009
tot    0.431  0.000  0.024  0.000  0.000  0.000  0.166  0.000  0.000  0.621
 
band     3 # energy   -7.02736155 # occ.  2.00000000
 
ion      s     py     pz     px    dxy    dyz    dz2    dxz  x2-y2    tot
    1  0.001  0.000  0.000  0.000  0.000  0.000  0.009  0.000  0.000  0.011
    2  0.020  0.000  0.006  0.000  0.000  0.000  0.259  0.000  0.000  0.284
    3  0.168  0.000  0.000  0.000  0.000  0.000  0.320  0.000  0.000  0.488
    4  0.000  0.000  0.000  0.000  0.000  0.000  0.000  0.000  0.000  0.000
tot    0.189  0.000  0.006  0.000  0.000  0.000  0.588  0.000  0.000  0.783
 
band     4 # energy   -5.90362997 # occ.  2.00000000
 
ion      s     py     pz     px    dxy    dyz    dz2    dxz  x2-y2    tot
    1  0.000  0.000  0.000  0.000  0.227  0.004  0.000  0.001  0.681  0.914
    2  0.000  0.000  0.000  0.000  0.002  0.017  0.000  0.006  0.005  0.028
    3  0.000  0.000  0.000  0.000  0.001  0.000  0.000  0.000  0.002  0.003
    4  0.000  0.002  0.000  0.001  0.000  0.000  0.000  0.000  0.000  0.003
tot    0.000  0.002  0.000  0.001  0.229  0.021  0.000  0.007  0.688  0.949
 
band     5 # energy   -5.90362956 # occ.  2.00000000
 
ion      s     py     pz     px    dxy    dyz    dz2    dxz  x2-y2    tot
    1  0.000  0.000  0.000  0.000  0.681  0.001  0.000  0.004  0.227  0.914
    2  0.000  0.000  0.000  0.000  0.005  0.006  0.000  0.017  0.002  0.028
    3  0.000  0.000  0.000  0.000  0.002  0.000  0.000  0.000  0.001  0.003
    4  0.000  0.001  0.000  0.002  0.000  0.000  0.000  0.000  0.000  0.003
tot    0.000  0.001  0.000  0.002  0.688  0.007  0.000  0.021  0.229  0.949
 
band     6 # energy   -5.81981019 # occ.  2.00000000
 
ion      s     py     pz     px    dxy    dyz    dz2    dxz  x2-y2    tot
    1  0.014  0.000  0.001  0.000  0.000  0.000  0.361  0.000  0.000  0.377
    2  0.002  0.000  0.004  0.000  0.000  0.000  0.403  0.000  0.000  0.408
    3  0.004  0.000  0.001  0.000  0.000  0.000  0.115  0.000  0.000  0.120
    4  0.001  0.000  0.000  0.000  0.000  0.000  0.000  0.000  0.000  0.002
tot    0.021  0.000  0.007  0.000  0.000  0.000  0.879  0.000  0.000  0.907
 
band     7 # energy   -5.59992538 # occ.  2.00000000
 
ion      s     py     pz     px    dxy    dyz    dz2    dxz  x2-y2    tot
    1  0.000  0.000  0.000  0.000  0.002  0.014  0.000  0.041  0.001  0.057
    2  0.000  0.000  0.000  0.000  0.630  0.002  0.000  0.005  0.210  0.847
    3  0.000  0.000  0.000  0.000  0.009  0.008  0.000  0.023  0.003  0.043
    4  0.000  0.000  0.000  0.000  0.000  0.000  0.000  0.000  0.000  0.000
tot    0.000  0.000  0.000  0.000  0.641  0.023  0.000  0.069  0.214  0.947
 
band     8 # energy   -5.59992499 # occ.  2.00000000
 
ion      s     py     pz     px    dxy    dyz    dz2    dxz  x2-y2    tot
    1  0.000  0.000  0.000  0.000  0.001  0.041  0.000  0.014  0.002  0.057
    2  0.000  0.000  0.000  0.000  0.210  0.005  0.000  0.002  0.630  0.847
    3  0.000  0.000  0.000  0.000  0.003  0.023  0.000  0.008  0.009  0.043
    4  0.000  0.000  0.000  0.000  0.000  0.000  0.000  0.000  0.000  0.000
tot    0.000  0.000  0.000  0.000  0.214  0.069  0.000  0.023  0.641  0.947
 
band     9 # energy   -5.46998432 # occ.  2.00000000
 
ion      s     py     pz     px    dxy    dyz    dz2    dxz  x2-y2    tot
    1  0.017  0.000  0.010  0.000  0.000  0.000  0.292  0.000  0.000  0.318
    2  0.014  0.000  0.017  0.000  0.000  0.000  0.097  0.000  0.000  0.128
    3  0.023  0.000  0.005  0.000  0.000  0.000  0.324  0.000  0.000  0.352
    4  0.024  0.000  0.000  0.000  0.000  0.000  0.000  0.000  0.000  0.025
tot    0.078  0.000  0.032  0.000  0.000  0.000  0.712  0.000  0.000  0.822
 
band    10 # energy   -5.35437976 # occ.  2.00000000
 
ion      s     py     pz     px    dxy    dyz    dz2    dxz  x2-y2    tot
    1  0.000  0.000  0.000  0.000  0.003  0.007  0.000  0.002  0.008  0.021
    2  0.000  0.000  0.000  0.000  0.001  0.060  0.000  0.020  0.002  0.082
    3  0.000  0.000  0.000  0.000  0.210  0.005  0.000  0.002  0.630  0.847
    4  0.000  0.000  0.000  0.000  0.000  0.000  0.000  0.000  0.000  0.000
tot    0.000  0.000  0.000  0.000  0.213  0.072  0.000  0.024  0.640  0.950
 
band    11 # energy   -5.35437975 # occ.  2.00000000
 
ion      s     py     pz     px    dxy    dyz    dz2    dxz  x2-y2    tot
    1  0.000  0.000  0.000  0.000  0.008  0.002  0.000  0.007  0.003  0.021
    2  0.000  0.000  0.000  0.000  0.002  0.020  0.000  0.060  0.001  0.082
    3  0.000  0.000  0.000  0.000  0.630  0.002  0.000  0.005  0.210  0.847
    4  0.000  0.000  0.000  0.000  0.000  0.000  0.000  0.000  0.000  0.000
tot    0.000  0.000  0.000  0.000  0.640  0.024  0.000  0.072  0.213  0.950
 
band    12 # energy   -4.79354599 # occ.  2.00000000
 
ion      s     py     pz     px    dxy    dyz    dz2    dxz  x2-y2    tot
    1  0.000  0.000  0.000  0.000  0.014  0.175  0.000  0.524  0.005  0.718
    2  0.000  0.000  0.000  0.000  0.055  0.034  0.000  0.102  0.018  0.210
    3  0.000  0.000  0.000  0.000  0.032  0.000  0.000  0.001  0.011  0.044
    4  0.000  0.000  0.000  0.000  0.000  0.000  0.000  0.000  0.000  0.000
tot    0.000  0.000  0.000  0.000  0.101  0.209  0.000  0.628  0.034  0.972
 
band    13 # energy   -4.79354381 # occ.  2.00000000
 
ion      s     py     pz     px    dxy    dyz    dz2    dxz  x2-y2    tot
    1  0.000  0.000  0.000  0.000  0.005  0.524  0.000  0.175  0.014  0.718
    2  0.000  0.000  0.000  0.000  0.018  0.102  0.000  0.034  0.055  0.210
    3  0.000  0.000  0.000  0.000  0.011  0.001  0.000  0.000  0.032  0.044
    4  0.000  0.000  0.000  0.000  0.000  0.000  0.000  0.000  0.000  0.000
tot    0.000  0.000  0.000  0.000  0.034  0.628  0.000  0.209  0.101  0.972
 
band    14 # energy   -4.51422915 # occ.  2.00000000
 
ion      s     py     pz     px    dxy    dyz    dz2    dxz  x2-y2    tot
    1  0.000  0.000  0.000  0.000  0.001  0.122  0.000  0.041  0.004  0.168
    2  0.000  0.000  0.000  0.000  0.002  0.308  0.000  0.103  0.006  0.418
    3  0.000  0.000  0.000  0.000  0.011  0.256  0.000  0.085  0.033  0.386
    4  0.000  0.000  0.000  0.000  0.000  0.000  0.000  0.000  0.000  0.000
tot    0.000  0.001  0.000  0.000  0.014  0.686  0.000  0.229  0.043  0.972
 
band    15 # energy   -4.51422728 # occ.  2.00000000
 
ion      s     py     pz     px    dxy    dyz    dz2    dxz  x2-y2    tot
    1  0.000  0.000  0.000  0.000  0.004  0.041  0.000  0.122  0.001  0.168
    2  0.000  0.000  0.000  0.000  0.006  0.103  0.000  0.308  0.002  0.418
    3  0.000  0.000  0.000  0.000  0.033  0.085  0.000  0.256  0.011  0.386
    4  0.000  0.000  0.000  0.000  0.000  0.000  0.000  0.000  0.000  0.000
tot    0.000  0.000  0.000  0.001  0.043  0.229  0.000  0.686  0.014  0.972
 
band    16 # energy   -4.04374301 # occ.  2.00000000
 
ion      s     py     pz     px    dxy    dyz    dz2    dxz  x2-y2    tot
    1  0.000  0.000  0.000  0.000  0.002  0.010  0.000  0.030  0.001  0.042
    2  0.000  0.000  0.000  0.000  0.015  0.079  0.000  0.238  0.005  0.337
    3  0.000  0.000  0.000  0.000  0.007  0.148  0.000  0.443  0.002  0.601
    4  0.000  0.000  0.000  0.000  0.000  0.000  0.000  0.000  0.000  0.000
tot    0.000  0.000  0.000  0.000  0.023  0.237  0.000  0.711  0.008  0.979
 
band    17 # energy   -4.04374232 # occ.  2.00000000
 
ion      s     py     pz     px    dxy    dyz    dz2    dxz  x2-y2    tot
    1  0.000  0.000  0.000  0.000  0.001  0.030  0.000  0.010  0.002  0.042
    2  0.000  0.000  0.000  0.000  0.005  0.238  0.000  0.079  0.015  0.337
    3  0.000  0.000  0.000  0.000  0.002  0.443  0.000  0.148  0.007  0.601
    4  0.000  0.000  0.000  0.000  0.000  0.000  0.000  0.000  0.000  0.000
tot    0.000  0.000  0.000  0.000  0.008  0.711  0.000  0.237  0.023  0.979
 
band    18 # energy   -3.83184460 # occ.  2.00000000
 
ion      s     py     pz     px    dxy    dyz    dz2    dxz  x2-y2    tot
    1  0.004  0.000  0.102  0.000  0.000  0.000  0.024  0.000  0.000  0.131
    2  0.051  0.000  0.052  0.000  0.000  0.000  0.040  0.000  0.000  0.142
    3  0.096  0.000  0.003  0.000  0.000  0.000  0.120  0.000  0.000  0.220
    4  0.058  0.000  0.000  0.000  0.000  0.000  0.000  0.000  0.000  0.058
tot    0.209  0.000  0.158  0.000  0.000  0.000  0.184  0.000  0.000  0.551
 
band    19 # energy   -1.17797319 # occ.  2.00000000
 
ion      s     py     pz     px    dxy    dyz    dz2    dxz  x2-y2    tot
    1  0.019  0.000  0.039  0.000  0.000  0.000  0.003  0.000  0.000  0.060
    2  0.022  0.000  0.078  0.000  0.000  0.000  0.017  0.000  0.000  0.117
    3  0.026  0.000  0.145  0.000  0.000  0.000  0.016  0.000  0.000  0.187
    4  0.013  0.000  0.000  0.000  0.000  0.000  0.000  0.000  0.000  0.013
tot    0.080  0.000  0.261  0.000  0.000  0.000  0.036  0.000  0.000  0.377
 
band    20 # energy    3.15096371 # occ.  0.00000000
 
ion      s     py     pz     px    dxy    dyz    dz2    dxz  x2-y2    tot
    1  0.024  0.000  0.002  0.000  0.000  0.000  0.024  0.000  0.000  0.050
    2  0.030  0.000  0.000  0.000  0.000  0.000  0.021  0.000  0.000  0.051
    3  0.025  0.000  0.001  0.000  0.000  0.000  0.019  0.000  0.000  0.045
    4  0.000  0.000  0.001  0.000  0.000  0.000  0.000  0.000  0.000  0.002
tot    0.079  0.000  0.005  0.000  0.000  0.000  0.064  0.000  0.000  0.148
 
band    21 # energy    3.52843715 # occ.  0.00000000
 
ion      s     py     pz     px    dxy    dyz    dz2    dxz  x2-y2    tot
    1  0.001  0.000  0.004  0.000  0.000  0.000  0.007  0.000  0.000  0.012
    2  0.000  0.000  0.008  0.000  0.000  0.000  0.000  0.000  0.000  0.008
    3  0.006  0.000  0.006  0.000  0.000  0.000  0.005  0.000  0.000  0.017
    4  0.009  0.000  0.000  0.000  0.000  0.000  0.000  0.000  0.000  0.009
tot    0.016  0.000  0.018  0.000  0.000  0.000  0.012  0.000  0.000  0.046
 
band    22 # energy    3.92262686 # occ.  0.00000000
 
ion      s     py     pz     px    dxy    dyz    dz2    dxz  x2-y2    tot
    1  0.008  0.000  0.001  0.000  0.000  0.000  0.007  0.000  0.000  0.016
    2  0.010  0.000  0.000  0.000  0.000  0.000  0.008  0.000  0.000  0.019
    3  0.007  0.000  0.002  0.000  0.000  0.000  0.005  0.000  0.000  0.014
    4  0.000  0.000  0.000  0.000  0.000  0.000  0.000  0.000  0.000  0.000
tot    0.025  0.000  0.004  0.000  0.000  0.000  0.020  0.000  0.000  0.049
 
band    23 # energy    4.81519160 # occ.  0.00000000
 
ion      s     py     pz     px    dxy    dyz    dz2    dxz  x2-y2    tot
    1  0.001  0.000  0.006  0.000  0.000  0.000  0.001  0.000  0.000  0.007
    2  0.006  0.000  0.004  0.000  0.000  0.000  0.006  0.000  0.000  0.016
    3  0.012  0.000  0.000  0.000  0.000  0.000  0.011  0.000  0.000  0.023
    4  0.010  0.000  0.000  0.000  0.000  0.000  0.000  0.000  0.000  0.011
tot    0.030  0.000  0.010  0.000  0.000  0.000  0.018  0.000  0.000  0.058
 
band    24 # energy    5.02047539 # occ.  0.00000000
 
ion      s     py     pz     px    dxy    dyz    dz2    dxz  x2-y2    tot
    1  0.036  0.000  0.009  0.000  0.000  0.000  0.025  0.000  0.000  0.070
    2  0.041  0.000  0.004  0.000  0.000  0.000  0.036  0.000  0.000  0.082
    3  0.011  0.000  0.025  0.000  0.000  0.000  0.010  0.000  0.000  0.045
    4  0.005  0.000  0.001  0.000  0.000  0.000  0.000  0.000  0.000  0.006
tot    0.092  0.000  0.040  0.000  0.000  0.000  0.071  0.000  0.000  0.203
 

 k-point     2 :    0.02083333 0.00000000 0.00000000     weight = 0.00260417

band     1 # energy   -9.31213663 # occ.  2.00000000
 
ion      s     py     pz     px    dxy    dyz    dz2    dxz  x2-y2    tot
    1  0.339  0.000  0.003  0.000  0.000  0.000  0.108  0.000  0.000  0.452
    2  0.033  0.000  0.003  0.000  0.000  0.000  0.002  0.000  0.000  0.039
    3  0.003  0.000  0.001  0.000  0.000  0.000  0.000  0.000  0.000  0.004
    4  0.137  0.000  0.001  0.000  0.000  0.000  0.000  0.000  0.000  0.138
tot    0.513  0.000  0.008  0.000  0.000  0.000  0.110  0.000  0.000  0.633
 
band     2 # energy   -7.75253457 # occ.  2.00000000
 
ion      s     py     pz     px    dxy    dyz    dz2    dxz  x2-y2    tot
    1  0.001  0.000  0.011  0.000  0.000  0.000  0.096  0.000  0.000  0.109
    2  0.285  0.000  0.003  0.000  0.000  0.000  0.068  0.000  0.000  0.356
    3  0.135  0.000  0.009  0.000  0.000  0.000  0.002  0.000  0.000  0.147
    4  0.009  0.000  0.000  0.000  0.000  0.000  0.000  0.000  0.000  0.009
tot    0.430  0.000  0.024  0.000  0.000  0.000  0.166  0.000  0.000  0.621
 
band     3 # energy   -7.01848775 # occ.  2.00000000
 
ion      s     py     pz     px    dxy    dyz    dz2    dxz  x2-y2    tot
    1  0.001  0.000  0.000  0.000  0.000  0.000  0.009  0.000  0.000  0.011
    2  0.020  0.000  0.006  0.000  0.000  0.000  0.260  0.000  0.000  0.285
    3  0.167  0.000  0.000  0.000  0.000  0.000  0.320  0.000  0.000  0.488
    4  0.000  0.000  0.000  0.000  0.000  0.000  0.000  0.000  0.000  0.000
tot    0.188  0.000  0.006  0.000  0.000  0.000  0.589  0.000  0.000  0.784
 
band     4 # energy   -5.91173747 # occ.  2.00000000
 
ion      s     py     pz     px    dxy    dyz    dz2    dxz  x2-y2    tot
    1  0.000  0.000  0.000  0.000  0.673  0.002  0.001  0.005  0.224  0.905
    2  0.000  0.000  0.000  0.000  0.004  0.006  0.003  0.017  0.001  0.031
    3  0.000  0.000  0.000  0.000  0.002  0.000  0.005  0.000  0.001  0.008
    4  0.000  0.001  0.000  0.002  0.000  0.000  0.000  0.000  0.000  0.003
tot    0.001  0.001  0.000  0.002  0.679  0.007  0.009  0.022  0.226  0.947
 
band     5 # energy   -5.89745869 # occ.  2.00000000
 
ion      s     py     pz     px    dxy    dyz    dz2    dxz  x2-y2    tot
    1  0.000  0.000  0.000  0.000  0.227  0.004  0.000  0.001  0.681  0.914
    2  0.000  0.000  0.000  0.000  0.001  0.017  0.000  0.006  0.004  0.029
    3  0.000  0.000  0.000  0.000  0.001  0.000  0.000  0.000  0.002  0.003
    4  0.000  0.002  0.000  0.001  0.000  0.000  0.000  0.000  0.000  0.003
tot    0.000  0.002  0.000  0.001  0.229  0.021  0.000  0.007  0.688  0.949
 
band     6 # energy   -5.81827462 # occ.  2.00000000
 
ion      s     py     pz     px    dxy    dyz    dz2    dxz  x2-y2    tot
    1  0.014  0.000  0.001  0.000  0.001  0.000  0.364  0.000  0.000  0.381
    2  0.002  0.000  0.004  0.000  0.000  0.000  0.398  0.001  0.000  0.405
    3  0.004  0.000  0.001  0.000  0.001  0.000  0.112  0.000  0.000  0.119
    4  0.001  0.000  0.000  0.000  0.000  0.000  0.000  0.000  0.000  0.002
tot    0.021  0.000  0.007  0.000  0.002  0.000  0.873  0.001  0.001  0.907
 
band     7 # energy   -5.61334464 # occ.  2.00000000
 
ion      s     py     pz     px    dxy    dyz    dz2    dxz  x2-y2    tot
    1  0.001  0.000  0.001  0.000  0.000  0.014  0.016  0.043  0.000  0.075
    2  0.001  0.000  0.001  0.000  0.589  0.002  0.008  0.006  0.196  0.802
    3  0.001  0.000  0.000  0.000  0.008  0.007  0.020  0.020  0.003  0.060
    4  0.002  0.000  0.000  0.000  0.000  0.000  0.000  0.000  0.000  0.002
tot    0.005  0.000  0.002  0.000  0.597  0.023  0.044  0.069  0.199  0.939
 
band     8 # energy   -5.59427891 # occ.  2.00000000
 
ion      s     py     pz     px    dxy    dyz    dz2    dxz  x2-y2    tot
    1  0.000  0.000  0.000  0.000  0.001  0.042  0.000  0.014  0.002  0.058
    2  0.000  0.000  0.000  0.000  0.210  0.005  0.000  0.002  0.629  0.846
    3  0.000  0.000  0.000  0.000  0.003  0.023  0.000  0.008  0.009  0.043
    4  0.000  0.000  0.000  0.000  0.000  0.000  0.000  0.000  0.000  0.000
tot    0.000  0.000  0.000  0.000  0.213  0.070  0.000  0.023  0.640  0.947
 
band     9 # energy   -5.46315834 # occ.  2.00000000
 
ion      s     py     pz     px    dxy    dyz    dz2    dxz  x2-y2    tot
    1  0.015  0.000  0.009  0.000  0.011  0.000  0.262  0.000  0.004  0.301
    2  0.013  0.000  0.015  0.000  0.041  0.001  0.089  0.002  0.014  0.175
    3  0.020  0.000  0.005  0.000  0.009  0.001  0.297  0.003  0.003  0.338
    4  0.022  0.000  0.000  0.000  0.000  0.000  0.000  0.000  0.000  0.022
tot    0.070  0.000  0.029  0.000  0.061  0.002  0.648  0.005  0.020  0.835
 
band    10 # energy   -5.35605350 # occ.  2.00000000
 
ion      s     py     pz     px    dxy    dyz    dz2    dxz  x2-y2    tot
    1  0.000  0.000  0.000  0.000  0.006  0.002  0.008  0.006  0.002  0.026
    2  0.000  0.000  0.000  0.000  0.004  0.019  0.000  0.057  0.001  0.082
    3  0.000  0.000  0.000  0.000  0.621  0.002  0.002  0.006  0.207  0.839
    4  0.001  0.000  0.000  0.000  0.000  0.000  0.000  0.000  0.000  0.001
tot    0.002  0.000  0.001  0.000  0.631  0.023  0.011  0.069  0.210  0.947
 
band    11 # energy   -5.34898747 # occ.  2.00000000
 
ion      s     py     pz     px    dxy    dyz    dz2    dxz  x2-y2    tot
    1  0.000  0.000  0.000  0.000  0.003  0.007  0.000  0.002  0.008  0.021
    2  0.000  0.000  0.000  0.000  0.001  0.061  0.000  0.020  0.002  0.083
    3  0.000  0.000  0.000  0.000  0.209  0.005  0.000  0.002  0.628  0.845
    4  0.000  0.000  0.000  0.000  0.000  0.000  0.000  0.000  0.000  0.000
tot    0.000  0.000  0.000  0.000  0.213  0.073  0.000  0.024  0.639  0.950
 
band    12 # energy   -4.80014580 # occ.  2.00000000
 
ion      s     py     pz     px    dxy    dyz    dz2    dxz  x2-y2    tot
    1  0.001  0.000  0.000  0.000  0.013  0.179  0.001  0.538  0.004  0.736
    2  0.000  0.000  0.001  0.000  0.052  0.028  0.000  0.083  0.017  0.183
    3  0.002  0.000  0.000  0.000  0.027  0.001  0.007  0.002  0.009  0.047
    4  0.000  0.000  0.000  0.000  0.000  0.000  0.000  0.000  0.000  0.001
tot    0.003  0.000  0.002  0.000  0.092  0.208  0.008  0.623  0.031  0.967
 
band    13 # energy   -4.79569945 # occ.  2.00000000
 
ion      s     py     pz     px    dxy    dyz    dz2    dxz  x2-y2    tot
    1  0.000  0.000  0.000  0.000  0.005  0.521  0.000  0.174  0.014  0.713
    2  0.000  0.000  0.000  0.000  0.019  0.103  0.000  0.034  0.056  0.211
    3  0.000  0.000  0.000  0.000  0.011  0.002  0.000  0.001  0.033  0.047
    4  0.000  0.000  0.000  0.000  0.000  0.000  0.000  0.000  0.000  0.000
tot    0.000  0.000  0.000  0.000  0.034  0.626  0.000  0.209  0.102  0.972
 
band    14 # energy   -4.54098267 # occ.  2.00000000
 
ion      s     py     pz     px    dxy    dyz    dz2    dxz  x2-y2    tot
    1  0.000  0.000  0.003  0.000  0.004  0.032  0.003  0.095  0.001  0.138
    2  0.001  0.000  0.002  0.000  0.008  0.110  0.000  0.329  0.003  0.452
    3  0.003  0.000  0.000  0.000  0.038  0.077  0.005  0.232  0.013  0.366
    4  0.002  0.000  0.000  0.000  0.000  0.000  0.000  0.000  0.000  0.002
tot    0.006  0.000  0.005  0.000  0.049  0.218  0.008  0.655  0.016  0.958
 
band    15 # energy   -4.51469738 # occ.  2.00000000
 
ion      s     py     pz     px    dxy    dyz    dz2    dxz  x2-y2    tot
    1  0.000  0.000  0.000  0.000  0.001  0.124  0.000  0.041  0.004  0.171
    2  0.000  0.000  0.000  0.000  0.002  0.305  0.000  0.102  0.007  0.415
    3  0.000  0.000  0.000  0.000  0.011  0.256  0.000  0.085  0.033  0.386
    4  0.000  0.000  0.000  0.000  0.000  0.000  0.000  0.000  0.000  0.000
tot    0.000  0.001  0.000  0.000  0.015  0.685  0.000  0.228  0.044  0.972
 
band    16 # energy   -4.07087488 # occ.  2.00000000
 
ion      s     py     pz     px    dxy    dyz    dz2    dxz  x2-y2    tot
    1  0.000  0.000  0.007  0.000  0.001  0.005  0.003  0.014  0.000  0.031
    2  0.003  0.000  0.004  0.000  0.014  0.066  0.003  0.199  0.005  0.293
    3  0.002  0.000  0.000  0.000  0.006  0.153  0.002  0.460  0.002  0.626
    4  0.004  0.000  0.000  0.000  0.000  0.000  0.000  0.000  0.000  0.004
tot    0.009  0.000  0.011  0.000  0.021  0.224  0.008  0.673  0.007  0.955
 
band    17 # energy   -4.04352335 # occ.  2.00000000
 
ion      s     py     pz     px    dxy    dyz    dz2    dxz  x2-y2    tot
    1  0.000  0.000  0.000  0.000  0.001  0.030  0.000  0.010  0.002  0.042
    2  0.000  0.000  0.000  0.000  0.005  0.238  0.000  0.079  0.015  0.338
    3  0.000  0.000  0.000  0.000  0.002  0.443  0.000  0.148  0.007  0.599
    4  0.000  0.000  0.000  0.000  0.000  0.000  0.000  0.000  0.000  0.000
tot    0.000  0.000  0.000  0.000  0.008  0.711  0.000  0.237  0.024  0.979
 
band    18 # energy   -3.77361139 # occ.  2.00000000
 
ion      s     py     pz     px    dxy    dyz    dz2    dxz  x2-y2    tot
    1  0.003  0.000  0.091  0.000  0.001  0.008  0.021  0.025  0.000  0.150
    2  0.048  0.000  0.046  0.000  0.001  0.011  0.037  0.033  0.000  0.176
    3  0.091  0.000  0.003  0.000  0.001  0.001  0.111  0.004  0.000  0.213
    4  0.051  0.000  0.000  0.000  0.000  0.000  0.000  0.000  0.000  0.052
tot    0.193  0.000  0.140  0.000  0.002  0.021  0.169  0.063  0.001  0.590
 
band    19 # energy   -1.15324914 # occ.  2.00000000
 
ion      s     py     pz     px    dxy    dyz    dz2    dxz  x2-y2    tot
    1  0.019  0.000  0.039  0.000  0.000  0.000  0.003  0.000  0.000  0.061
    2  0.022  0.000  0.078  0.000  0.000  0.000  0.017  0.001  0.000  0.118
    3  0.026  0.000  0.144  0.000  0.000  0.001  0.015  0.002  0.000  0.188
    4  0.013  0.000  0.000  0.000  0.000  0.000  0.000  0.000  0.000  0.013
tot    0.080  0.000  0.261  0.000  0.000  0.001  0.035  0.003  0.000  0.380
 
band    20 # energy    3.15981527 # occ.  0.00000000
 
ion      s     py     pz     px    dxy    dyz    dz2    dxz  x2-y2    tot
    1  0.024  0.000  0.002  0.000  0.000  0.000  0.024  0.000  0.000  0.050
    2  0.030  0.000  0.000  0.000  0.000  0.000  0.021  0.000  0.000  0.051
    3  0.025  0.000  0.001  0.000  0.000  0.000  0.019  0.000  0.000  0.045
    4  0.000  0.000  0.001  0.000  0.000  0.000  0.000  0.000  0.000  0.002
tot    0.079  0.000  0.005  0.000  0.000  0.000  0.064  0.000  0.000  0.148
 
band    21 # energy    3.53903715 # occ.  0.00000000
 
ion      s     py     pz     px    dxy    dyz    dz2    dxz  x2-y2    tot
    1  0.001  0.000  0.004  0.000  0.000  0.000  0.007  0.000  0.000  0.012
    2  0.000  0.000  0.008  0.000  0.000  0.000  0.000  0.000  0.000  0.008
    3  0.006  0.000  0.006  0.000  0.000  0.000  0.005  0.000  0.000  0.017
    4  0.009  0.000  0.000  0.000  0.000  0.000  0.000  0.000  0.000  0.009
tot    0.016  0.000  0.018  0.000  0.000  0.000  0.012  0.000  0.000  0.046
 
band    22 # energy    3.93257820 # occ.  0.00000000
 
ion      s     py     pz     px    dxy    dyz    dz2    dxz  x2-y2    tot
    1  0.008  0.000  0.001  0.000  0.000  0.000  0.007  0.000  0.000  0.016
    2  0.010  0.000  0.000  0.000  0.000  0.000  0.008  0.000  0.000  0.019
    3  0.007  0.000  0.002  0.000  0.000  0.000  0.005  0.000  0.000  0.014
    4  0.000  0.000  0.000  0.000  0.000  0.000  0.000  0.000  0.000  0.000
tot    0.025  0.000  0.004  0.000  0.000  0.000  0.020  0.000  0.000  0.049
 
band    23 # energy    4.82532816 # occ.  0.00000000
 
ion      s     py     pz     px    dxy    dyz    dz2    dxz  x2-y2    tot
    1  0.001  0.000  0.006  0.000  0.000  0.000  0.001  0.000  0.000  0.007
    2  0.007  0.000  0.004  0.000  0.000  0.000  0.006  0.000  0.000  0.016
    3  0.012  0.000  0.000  0.000  0.000  0.000  0.011  0.000  0.000  0.024
    4  0.011  0.000  0.000  0.000  0.000  0.000  0.000  0.000  0.000  0.011
tot    0.030  0.000  0.010  0.000  0.000  0.000  0.018  0.000  0.000  0.058
 
band    24 # energy    5.02956283 # occ.  0.00000000
 
ion      s     py     pz     px    dxy    dyz    dz2    dxz  x2-y2    tot
    1  0.036  0.000  0.009  0.000  0.000  0.000  0.025  0.000  0.000  0.070
    2  0.041  0.000  0.004  0.000  0.000  0.000  0.036  0.000  0.000  0.081
    3  0.011  0.000  0.025  0.000  0.000  0.000  0.010  0.000  0.000  0.045
    4  0.005  0.000  0.001  0.000  0.000  0.000  0.000  0.000  0.000  0.006
tot    0.092  0.000  0.040  0.000  0.000  0.000  0.071  0.000  0.000  0.202
 

 k-point     3 :    0.04166667 0.00000000 0.00000000     weight = 0.00260417

band     1 # energy   -9.28085425 # occ.  2.00000000
 
ion      s     py     pz     px    dxy    dyz    dz2    dxz  x2-y2    tot
    1  0.337  0.001  0.003  0.002  0.001  0.000  0.108  0.000  0.000  0.452
    2  0.033  0.000  0.003  0.000  0.000  0.000  0.002  0.000  0.000  0.038
    3  0.003  0.000  0.001  0.000  0.000  0.000  0.000  0.000  0.000  0.004
    4  0.138  0.000  0.001  0.000  0.000  0.000  0.000  0.000  0.000  0.139
tot    0.511  0.001  0.008  0.002  0.001  0.000  0.110  0.000  0.000  0.633
 
band     2 # energy   -7.72065474 # occ.  2.00000000
 
ion      s     py     pz     px    dxy    dyz    dz2    dxz  x2-y2    tot
    1  0.001  0.000  0.011  0.000  0.000  0.000  0.097  0.001  0.000  0.110
    2  0.284  0.000  0.003  0.001  0.000  0.000  0.067  0.000  0.000  0.356
    3  0.134  0.000  0.009  0.000  0.000  0.000  0.002  0.000  0.000  0.146
    4  0.009  0.000  0.000  0.000  0.000  0.000  0.000  0.000  0.000  0.009
tot    0.428  0.001  0.024  0.002  0.000  0.000  0.165  0.001  0.000  0.621
 
band     3 # energy   -6.99219144 # occ.  2.00000000
 
ion      s     py     pz     px    dxy    dyz    dz2    dxz  x2-y2    tot
    1  0.001  0.000  0.000  0.000  0.000  0.000  0.009  0.000  0.000  0.011
    2  0.019  0.000  0.005  0.000  0.000  0.000  0.262  0.000  0.000  0.287
    3  0.166  0.000  0.000  0.001  0.000  0.000  0.319  0.000  0.000  0.486
    4  0.000  0.000  0.000  0.000  0.000  0.000  0.000  0.000  0.000  0.000
tot    0.186  0.000  0.006  0.001  0.001  0.000  0.591  0.000  0.000  0.785
 
band     4 # energy   -5.93521595 # occ.  2.00000000
 
ion      s     py     pz     px    dxy    dyz    dz2    dxz  x2-y2    tot
    1  0.000  0.000  0.001  0.000  0.651  0.003  0.005  0.008  0.217  0.885
    2  0.001  0.000  0.000  0.000  0.001  0.006  0.010  0.018  0.000  0.037
    3  0.000  0.000  0.000  0.000  0.002  0.000  0.016  0.000  0.001  0.018
    4  0.001  0.001  0.000  0.002  0.000  0.000  0.000  0.000  0.000  0.004
tot    0.003  0.001  0.001  0.002  0.654  0.009  0.031  0.026  0.218  0.944
 
band     5 # energy   -5.87904591 # occ.  2.00000000
 
ion      s     py     pz     px    dxy    dyz    dz2    dxz  x2-y2    tot
    1  0.000  0.000  0.000  0.000  0.227  0.005  0.000  0.002  0.680  0.913
    2  0.000  0.000  0.000  0.000  0.001  0.018  0.000  0.006  0.004  0.029
    3  0.000  0.000  0.000  0.000  0.001  0.000  0.000  0.000  0.003  0.004
    4  0.000  0.002  0.000  0.001  0.000  0.000  0.000  0.000  0.000  0.003
tot    0.000  0.002  0.000  0.001  0.229  0.022  0.000  0.007  0.687  0.949
 
band     6 # energy   -5.81422781 # occ.  2.00000000
 
ion      s     py     pz     px    dxy    dyz    dz2    dxz  x2-y2    tot
    1  0.014  0.000  0.001  0.000  0.003  0.000  0.369  0.000  0.001  0.388
    2  0.001  0.000  0.004  0.000  0.001  0.001  0.386  0.004  0.000  0.399
    3  0.005  0.000  0.001  0.000  0.004  0.001  0.103  0.002  0.001  0.117
    4  0.001  0.000  0.000  0.000  0.000  0.000  0.000  0.000  0.000  0.002
tot    0.022  0.000  0.007  0.000  0.008  0.002  0.858  0.006  0.003  0.906
 
band     7 # energy   -5.64523839 # occ.  2.00000000
 
ion      s     py     pz     px    dxy    dyz    dz2    dxz  x2-y2    tot
    1  0.001  0.000  0.002  0.000  0.003  0.017  0.032  0.050  0.001  0.106
    2  0.002  0.000  0.001  0.000  0.528  0.002  0.022  0.007  0.176  0.738
    3  0.003  0.000  0.001  0.000  0.008  0.005  0.046  0.015  0.003  0.081
    4  0.004  0.000  0.000  0.000  0.000  0.000  0.000  0.000  0.000  0.004
tot    0.010  0.000  0.004  0.000  0.539  0.024  0.099  0.072  0.180  0.929
 
band     8 # energy   -5.57744879 # occ.  2.00000000
 
ion      s     py     pz     px    dxy    dyz    dz2    dxz  x2-y2    tot
    1  0.000  0.000  0.000  0.000  0.000  0.044  0.000  0.015  0.001  0.060
    2  0.000  0.000  0.000  0.000  0.209  0.006  0.000  0.002  0.627  0.844
    3  0.000  0.000  0.000  0.000  0.003  0.024  0.000  0.008  0.008  0.043
    4  0.000  0.000  0.000  0.000  0.000  0.000  0.000  0.000  0.000  0.000
tot    0.000  0.000  0.000  0.000  0.212  0.073  0.000  0.024  0.637  0.947
 
band     9 # energy   -5.45218312 # occ.  2.00000000
 
ion      s     py     pz     px    dxy    dyz    dz2    dxz  x2-y2    tot
    1  0.012  0.000  0.006  0.000  0.032  0.001  0.201  0.002  0.011  0.266
    2  0.009  0.000  0.013  0.000  0.095  0.004  0.077  0.013  0.032  0.242
    3  0.016  0.000  0.004  0.000  0.044  0.002  0.248  0.007  0.015  0.336
    4  0.016  0.000  0.000  0.000  0.000  0.000  0.000  0.000  0.000  0.016
tot    0.054  0.000  0.024  0.000  0.171  0.007  0.526  0.021  0.057  0.859
 
band    10 # energy   -5.35977068 # occ.  2.00000000
 
ion      s     py     pz     px    dxy    dyz    dz2    dxz  x2-y2    tot
    1  0.002  0.000  0.001  0.000  0.002  0.001  0.037  0.004  0.001  0.048
    2  0.001  0.000  0.001  0.000  0.014  0.016  0.000  0.047  0.005  0.085
    3  0.001  0.000  0.000  0.000  0.584  0.003  0.012  0.009  0.195  0.803
    4  0.003  0.000  0.000  0.000  0.000  0.000  0.000  0.000  0.000  0.003
tot    0.007  0.000  0.002  0.000  0.600  0.020  0.050  0.060  0.200  0.939
 